# vtk DataFile Version 3.0
a stupid file
ASCII
DATASET UNSTRUCTURED_GRID
POINTS 100 float
    5.060831    9.236923    1.391694
    0.443984    1.909786    1.087908
    2.526738    3.958423    8.729895
    0.791993    5.859580    1.395060
    0.871729    3.861215    1.321964
    5.884431    7.205236    3.502848
    4.986435    2.168822    6.924552
    6.544907    5.601992    6.294317
    0.353838    9.230200    5.514005
    4.149026    3.140316    1.345495
    5.541813    1.425341    8.696188
    4.832313    0.075622    5.242186
    1.447605    5.389747    7.842910
    6.193189    3.686203    8.445760
    0.897331    9.232479    8.713434
    8.371417    4.902125    4.466820
    8.405548    0.199888    6.910805
    7.936298    1.403194    1.072089
    9.240119    8.354142    2.657489
    0.901582    1.469992    6.494158
    3.618548    0.689734    6.924405
    5.938795    5.818454    8.249273
    5.621620    5.135539    3.413663
    4.059788    6.353915    3.137735
    5.247759    4.145216    6.744163
    3.638739    0.848758    8.920013
    9.245884    1.585658    4.781599
    8.523804    2.230996    6.919148
    3.495467    8.779442    3.553746
    1.643515    0.322414    0.824694
    4.253896    7.406906    5.008105
    0.767949    1.971525    3.060423
    2.661699    6.679165    1.383620
    5.488255    1.710826    0.940110
    6.671844    9.032264    7.711223
    8.393911    5.197401    0.912145
    3.242178    7.527815    6.735680
    3.843901    4.377393    2.898606
    1.241525    7.364155    8.086266
    1.735452    8.916030    6.925435
    3.706569    1.704931    4.962561
    7.293744    1.760653    4.383744
    2.174437    3.801017    3.837014
    0.026666    6.263225    6.201501
    6.595935    8.021433    0.941052
    9.064911    6.172509    8.178044
    3.022486    6.474655    8.593736
    5.451358    9.153056    3.367579
    3.428743    1.252551    1.190774
    6.833523    3.678591    4.052734
    0.601255    3.422149    8.623522
    4.121083    1.190448    3.067073
    6.198044    8.042348    5.293053
    3.046170    2.587255    6.656497
    4.141487    5.776227    7.086524
    5.269746    7.422120    6.952400
    2.343827    2.769261    2.122302
    9.384809    4.095329    6.853434
    9.339351    1.543090    8.610769
    4.853770    5.466460    5.235224
    8.387084    8.734563    8.700528
    2.225987    0.647356    2.710197
    4.252148    2.952372    8.626110
    2.695584    4.681657    1.289532
    6.737343    1.259967    6.589762
    2.885729    8.467695    8.498859
    6.576295    6.021911    1.074142
    3.961928    3.679071    4.768978
    7.652961    3.726221    5.916283
    4.264836    4.934023    8.896337
    8.489321    0.766053    2.977695
    1.752587    2.097781    4.796633
    7.645617    9.229661    4.589731
    0.403516    4.457508    3.173011
    8.123547    7.395227    5.227174
    2.637549    0.035387    5.226259
    8.165084    6.790305    3.288865
    4.865964    8.747022    8.522029
    8.579871    7.188706    0.921545
    4.866813    5.007533    1.294619
    7.478534    5.010754    2.680517
    8.447906    3.234178    1.747799
    1.045781    7.837618    1.166917
    1.364600    8.694320    3.873543
    6.578757    1.142273    2.517289
    3.157457    8.649407    1.580467
    2.038177    5.612997    2.971629
    4.845848    7.253603    1.533806
    5.546173    2.486586    5.030996
    7.418475    2.109662    8.581525
    2.502539    5.020804    6.183926
    5.224226    2.862415    3.026630
    7.700333    4.766877    7.697006
    2.234529    7.307360    5.022203
    0.489673    6.653161    4.290221
    8.988036    9.144913    0.837876
    2.023842    2.023240    8.777998
    7.245111    8.493107    2.773695
    7.361261    7.158178    7.823009
    6.525680    3.397598    1.220249

CELL_TYPES 100
1
1
1
1
1
1
1
1
1
1
1
1
1
1
1
1
1
1
1
1
1
1
1
1
1
1
1
1
1
1
1
1
1
1
1
1
1
1
1
1
1
1
1
1
1
1
1
1
1
1
1
1
1
1
1
1
1
1
1
1
1
1
1
1
1
1
1
1
1
1
1
1
1
1
1
1
1
1
1
1
1
1
1
1
1
1
1
1
1
1
1
1
1
1
1
1
1
1
1
1

POINT_DATA 100
SCALARS index float 1
LOOKUP_TABLE default
  1.0
  2.0
  3.0
  4.0
  5.0
  6.0
  7.0
  8.0
  9.0
 10.0
 11.0
 12.0
 13.0
 14.0
 15.0
 16.0
 17.0
 18.0
 19.0
 20.0
 21.0
 22.0
 23.0
 24.0
 25.0
 26.0
 27.0
 28.0
 29.0
 30.0
 31.0
 32.0
 33.0
 34.0
 35.0
 36.0
 37.0
 38.0
 39.0
 40.0
 41.0
 42.0
 43.0
 44.0
 45.0
 46.0
 47.0
 48.0
 49.0
 50.0
 51.0
 52.0
 53.0
 54.0
 55.0
 56.0
 57.0
 58.0
 59.0
 60.0
 61.0
 62.0
 63.0
 64.0
 65.0
 66.0
 67.0
 68.0
 69.0
 70.0
 71.0
 72.0
 73.0
 74.0
 75.0
 76.0
 77.0
 78.0
 79.0
 80.0
 81.0
 82.0
 83.0
 84.0
 85.0
 86.0
 87.0
 88.0
 89.0
 90.0
 91.0
 92.0
 93.0
 94.0
 95.0
 96.0
 97.0
 98.0
 99.0
100.0
