# vtk DataFile Version 3.0
a stupid file
ASCII
DATASET UNSTRUCTURED_GRID
POINTS 100 float
    4.347517    1.588047    1.295702
    8.825777    5.564725    1.100819
    1.822553    6.697938    8.975279
    1.282985    5.044500    1.524217
    1.449844    3.160665    2.174814
    7.635652    1.537671    2.788775
    5.342231    8.869805    6.548686
    4.062919    7.366878    6.224967
    0.663026    3.618528    4.551797
    3.679002    3.516057    1.450851
    5.393393    5.134727    8.244191
    5.497342    7.533815    4.735061
    1.149556    8.532473    8.549232
    6.751297    7.165425    8.477452
    0.476348    8.220924    6.691049
    8.497180    2.400661    4.498612
    7.864067    9.285649    8.511675
    7.367267    4.202282    0.966896
    9.190894    8.760126    2.680932
    8.919844    0.516704    6.945719
    0.944331    1.347432    5.681366
    5.851650    8.958645    8.481691
    6.638623    9.253319    3.066570
    4.594016    0.505707    2.965906
    6.245066    3.082559    6.504946
    3.939678    3.750070    8.744069
    8.397297    6.683992    6.118687
    7.236177    8.314549    6.875051
    2.408827    6.777795    5.266290
    0.949119    0.528842    1.525692
    5.558410    4.472136    4.696922
    1.958803    1.458253    3.790759
    3.415416    7.680502    1.510626
    5.413753    4.689848    0.903888
    6.232887    3.334882    8.488922
    8.098326    9.248114    1.078384
    4.371187    2.868488    4.833426
    3.688941    4.881427    4.115996
    1.260299    1.100933    8.659762
    2.450758    3.857741    7.405978
    3.808853    6.858654    3.840331
    7.288314    8.458611    4.878537
    2.402717    2.864282    5.187806
    8.750862    5.710559    4.392100
    6.401704    0.844717    1.354957
    8.205867    3.069026    8.292238
    3.120115    8.314677    8.812756
    5.023400    4.158215    2.791978
    2.123362    3.050799    9.206402
    5.540873    6.075468    3.125402
    0.444423    2.374750    7.350965
    3.087744    3.130456    3.322122
    7.531802    4.148204    4.670440
    2.296545    7.538070    7.162957
    4.327386    3.595499    6.761187
    6.333386    1.750893    4.892735
    2.296286    6.379581    2.620997
    8.696405    0.464285    4.957651
    8.687477    7.505636    8.108837
    6.293944    5.081378    6.457260
    9.156451    5.598199    7.710723
    1.264575    9.017206    3.991185
    3.601258    5.782582    8.935721
    3.463044    5.495028    1.258569
    6.527596    1.043037    6.753090
    3.227994    1.450398    8.737466
    6.529614    8.034376    1.338975
    4.707887    1.242038    5.947450
    8.083289    2.267624    6.461515
    4.761885    7.288606    8.310750
    7.246507    7.351966    3.198494
    2.032941    0.048765    6.743617
    6.813700    6.028627    4.774284
    0.183391    1.816174    2.941869
    0.494845    7.243908    4.920738
    0.702003    4.156805    6.478397
    9.338508    6.769173    2.800288
    4.911694    1.991527    7.803206
    8.868949    1.654582    0.846621
    5.095405    6.646873    1.165754
    9.075809    3.745744    2.832659
    9.138914    7.542144    0.962654
    1.495797    8.072662    1.919133
    2.397173    4.813307    5.641278
    5.962482    2.794940    1.237084
    2.922535    0.195767    1.510810
    3.092503    8.643094    3.253334
    4.815014    9.065229    1.153957
    5.546869    2.256909    3.124949
    7.374432    5.270320    8.619726
    2.982163    1.808673    6.784630
    5.097188    8.002232    2.824355
    8.117155    4.268073    6.580807
    3.825902    5.521503    6.958688
    1.305653    5.461195    4.095774
    9.288120    3.616702    0.848152
    1.226668    4.789185    8.766249
    7.092248    3.488555    2.814851
    6.579365    1.378720    8.723982
    6.972999    6.104351    1.630645

CELL_TYPES 100
1
1
1
1
1
1
1
1
1
1
1
1
1
1
1
1
1
1
1
1
1
1
1
1
1
1
1
1
1
1
1
1
1
1
1
1
1
1
1
1
1
1
1
1
1
1
1
1
1
1
1
1
1
1
1
1
1
1
1
1
1
1
1
1
1
1
1
1
1
1
1
1
1
1
1
1
1
1
1
1
1
1
1
1
1
1
1
1
1
1
1
1
1
1
1
1
1
1
1
1

POINT_DATA 100
SCALARS index float 1
LOOKUP_TABLE default
  1.0
  2.0
  3.0
  4.0
  5.0
  6.0
  7.0
  8.0
  9.0
 10.0
 11.0
 12.0
 13.0
 14.0
 15.0
 16.0
 17.0
 18.0
 19.0
 20.0
 21.0
 22.0
 23.0
 24.0
 25.0
 26.0
 27.0
 28.0
 29.0
 30.0
 31.0
 32.0
 33.0
 34.0
 35.0
 36.0
 37.0
 38.0
 39.0
 40.0
 41.0
 42.0
 43.0
 44.0
 45.0
 46.0
 47.0
 48.0
 49.0
 50.0
 51.0
 52.0
 53.0
 54.0
 55.0
 56.0
 57.0
 58.0
 59.0
 60.0
 61.0
 62.0
 63.0
 64.0
 65.0
 66.0
 67.0
 68.0
 69.0
 70.0
 71.0
 72.0
 73.0
 74.0
 75.0
 76.0
 77.0
 78.0
 79.0
 80.0
 81.0
 82.0
 83.0
 84.0
 85.0
 86.0
 87.0
 88.0
 89.0
 90.0
 91.0
 92.0
 93.0
 94.0
 95.0
 96.0
 97.0
 98.0
 99.0
100.0
