# vtk DataFile Version 3.0
a stupid file
ASCII
DATASET UNSTRUCTURED_GRID
POINTS 100 float
    4.355751    4.518440    1.524427
    8.675334    8.353372    0.560637
    2.737001    8.563626    9.082165
    1.615331    4.593906    1.350792
    1.650433    3.797593    3.935207
    7.239950    5.230151    2.873534
    5.632179    2.657507    6.542869
    3.541739    2.456575    6.212936
    0.533817    6.682807    5.431198
    2.762374    7.872060    0.141171
    5.875835    9.424970    8.073890
    6.042714    6.132153    4.565260
    1.218919    0.437810    9.130496
    7.293274    1.375446    8.390646
    0.300977    6.225825    7.364258
    8.524194    6.154561    4.143855
    8.698870    4.543810    7.746822
    7.431916    6.955177    1.266792
    0.540811    3.215373    2.376505
    0.198149    8.531136    7.381942
    1.624816    3.089626    5.805411
    6.571904    3.491783    8.559640
    6.857165    3.207489    3.196673
    4.162167    6.382464    2.342909
    6.225241    5.878597    6.540620
    2.555464    6.575174    8.967851
    8.835269    4.102662    5.798680
    6.737101    0.989588    6.507288
    2.257827    1.124878    5.177227
    1.093378    1.336543    1.575198
    4.055921    5.759354    4.249830
    1.210230    8.058573    4.146948
    3.280111    1.013755    1.980953
    5.515519    7.684730    0.960785
    6.037446    7.452046    8.362614
    8.183501    2.538829    1.776304
    4.551652    7.135700    6.038922
    4.965048    7.791151    4.195088
    0.966450    3.306466    8.980099
    2.116732    2.401032    7.617459
    3.056537    7.412134    3.730667
    6.939901    7.953617    4.469093
    2.590518    6.265227    5.524784
    8.717959    8.057704    3.558852
    6.535808    3.546150    1.250529
    7.910648    6.615425    8.102826
    3.900948    3.221235    8.025910
    5.567628    8.834656    2.598950
    0.984049    5.307517    9.004364
    4.463084    0.292650    4.013697
    0.021239    1.900863    5.681630
    2.905261    4.910464    2.845946
    7.069479    2.541127    5.153616
    1.900272    7.480671    7.309446
    4.640532    4.940409    7.320571
    5.374830    4.610238    3.245776
    2.544625    9.417263    3.536131
    8.212942    0.843368    4.517312
    8.355963    2.634294    7.256509
    6.317557    8.028848    6.462714
    0.279453    1.184958    7.531014
    1.542921    6.103306    3.804327
    3.948616    0.500042    8.261733
    3.785910    8.284114    1.851056
    7.049335    4.063601    6.703582
    2.867769    4.608363    9.151498
    6.262848    1.564049    1.587249
    5.148670    4.561524    5.421809
    8.162582    6.143287    6.120489
    5.365147    1.906681    8.383354
    6.444605    1.287609    3.576616
    2.163409    0.417789    7.363577
    7.179033    4.496690    4.749144
    0.184826    5.171899    2.623338
    0.399203    9.362436    5.574041
    1.841106    4.375402    7.422994
    0.489134    0.156640    3.072717
    4.448489    5.932179    9.049031
    8.836833    4.251884    0.975907
    4.862904    0.279177    0.942390
    8.702779    2.950885    4.073106
    8.723795    0.918305    0.733464
    1.798501    8.603206    1.867703
    2.304037    8.628143    5.722039
    6.069363    5.493362    1.187037
    2.459850    2.796821    1.592765
    2.008857    6.538815    1.600654
    4.551310    2.558483    1.873016
    6.057346    6.899244    2.718406
    7.674541    8.583153    7.834021
    3.202279    4.410915    5.957492
    5.027101    2.680772    3.823382
    8.255947    8.166580    5.965807
    3.978445    7.513147    7.917586
    2.051569    1.919362    3.347198
    9.405538    6.631541    1.271336
    0.726795    7.386410    8.936909
    8.014718    0.500804    2.556861
    6.316099    5.474882    8.498543
    6.872351    9.146106    1.113325

CELL_TYPES 100
1
1
1
1
1
1
1
1
1
1
1
1
1
1
1
1
1
1
1
1
1
1
1
1
1
1
1
1
1
1
1
1
1
1
1
1
1
1
1
1
1
1
1
1
1
1
1
1
1
1
1
1
1
1
1
1
1
1
1
1
1
1
1
1
1
1
1
1
1
1
1
1
1
1
1
1
1
1
1
1
1
1
1
1
1
1
1
1
1
1
1
1
1
1
1
1
1
1
1
1

POINT_DATA 100
SCALARS index float 1
LOOKUP_TABLE default
  1.0
  2.0
  3.0
  4.0
  5.0
  6.0
  7.0
  8.0
  9.0
 10.0
 11.0
 12.0
 13.0
 14.0
 15.0
 16.0
 17.0
 18.0
 19.0
 20.0
 21.0
 22.0
 23.0
 24.0
 25.0
 26.0
 27.0
 28.0
 29.0
 30.0
 31.0
 32.0
 33.0
 34.0
 35.0
 36.0
 37.0
 38.0
 39.0
 40.0
 41.0
 42.0
 43.0
 44.0
 45.0
 46.0
 47.0
 48.0
 49.0
 50.0
 51.0
 52.0
 53.0
 54.0
 55.0
 56.0
 57.0
 58.0
 59.0
 60.0
 61.0
 62.0
 63.0
 64.0
 65.0
 66.0
 67.0
 68.0
 69.0
 70.0
 71.0
 72.0
 73.0
 74.0
 75.0
 76.0
 77.0
 78.0
 79.0
 80.0
 81.0
 82.0
 83.0
 84.0
 85.0
 86.0
 87.0
 88.0
 89.0
 90.0
 91.0
 92.0
 93.0
 94.0
 95.0
 96.0
 97.0
 98.0
 99.0
100.0
