# vtk DataFile Version 3.0
a stupid file
ASCII
DATASET UNSTRUCTURED_GRID
POINTS 100 float
    4.038046    5.468202    0.945503
    8.767206    9.248909    1.060747
    2.114568    9.408506    9.058010
    1.592422    6.978431    1.951185
    1.322152    1.838999    3.728235
    7.732656    0.278276    2.720952
    6.479984    8.712733    6.819658
    4.119631    7.117362    6.467007
    0.657412    0.394127    5.392773
    3.498948    7.325160    1.456350
    5.748759    9.134788    8.637554
    6.024188    6.246999    5.101462
    1.238296    1.817992    8.958489
    7.093010    1.194828    8.783593
    0.327792    4.978659    7.540137
    9.059762    4.008547    3.776279
    8.479534    3.958467    8.694896
    7.313852    7.856436    0.996450
    0.035808    7.532006    3.087883
    9.323352    6.885137    7.116820
    0.870975    6.592415    5.393857
    6.643927    3.194089    8.475884
    6.833070    7.932053    2.936344
    4.504415    0.212188    2.655424
    5.952670    2.957944    6.613931
    3.440882    7.819275    8.485415
    8.865451    8.751692    6.563432
    7.355892    6.916176    6.747816
    3.091046    3.662829    5.311654
    1.034224    3.058487    2.057737
    4.892964    4.160214    4.598346
    1.117219    5.868531    3.545588
    3.343051    2.062255    1.521431
    5.479900    8.619622    1.232228
    6.215791    7.207145    8.365052
    8.046875    3.695077    1.211033
    4.054367    1.252471    5.900758
    4.156409    6.012264    4.421936
    1.396904    3.989799    8.911262
    2.216325    0.953835    7.313297
    3.461253    3.509854    3.352205
    6.745325    8.104360    4.927492
    2.583530    9.343229    5.641145
    8.306142    6.644151    4.456734
    6.265258    4.606450    1.213653
    8.087803    6.566178    8.657620
    3.249152    2.176288    8.551459
    5.354706    3.279841    2.748870
    1.578999    5.985197    8.735070
    4.977421    5.385839    2.709202
    9.366089    4.828083    5.575865
    2.872576    0.542329    3.763704
    6.890558    2.958153    4.847483
    2.027428    5.591005    6.682139
    4.014943    3.225322    7.030635
    5.460931    1.048949    4.493580
    2.971784    5.428976    2.903231
    8.614128    8.728083    4.578693
    8.777135    2.061493    8.135590
    5.933992    4.958470    6.628357
    0.259799    0.280432    8.119424
    1.624917    3.985702    3.990210
    3.897389    0.318882    8.191249
    3.551652    9.215725    0.806043
    6.945359    1.230601    6.789372
    3.082549    4.786300    8.178498
    6.369157    2.615730    1.051814
    4.931827    8.690597    5.536827
    8.231984    2.686687    6.315744
    5.277398    1.767204    8.158639
    6.814316    5.957817    3.255639
    2.188750    7.566958    6.945992
    7.481683    4.868690    4.866494
    0.292805    0.068197    2.805365
    0.481300    2.927132    5.251753
    1.103926    2.605194    7.124854
    8.724982    5.678255    2.727564
    4.783276    5.836058    8.104296
    9.116905    5.333283    0.796925
    5.026580    1.130996    0.957411
    8.695475    1.258305    4.174390
    8.636136    1.784248    1.424076
    1.475965    1.240612    1.344494
    2.172353    1.902855    5.553426
    5.739782    6.536034    1.235984
    2.747610    3.975283    1.542795
    2.125114    8.973763    2.186782
    4.589634    3.517758    0.912043
    6.095508    1.423793    2.634335
    7.955524    8.803589    8.556857
    2.723358    7.264390    5.042657
    4.880578    7.528913    3.118122
    7.879194    4.573539    6.889001
    3.953097    5.125169    6.408847
    1.520152    8.503350    4.034119
    9.232607    7.304586    1.113985
    0.962553    7.873256    8.496031
    7.212192    3.979306    3.007208
    6.642131    5.194065    8.483889
    6.982853    0.716838    0.919451

CELL_TYPES 100
1
1
1
1
1
1
1
1
1
1
1
1
1
1
1
1
1
1
1
1
1
1
1
1
1
1
1
1
1
1
1
1
1
1
1
1
1
1
1
1
1
1
1
1
1
1
1
1
1
1
1
1
1
1
1
1
1
1
1
1
1
1
1
1
1
1
1
1
1
1
1
1
1
1
1
1
1
1
1
1
1
1
1
1
1
1
1
1
1
1
1
1
1
1
1
1
1
1
1
1

POINT_DATA 100
SCALARS index float 1
LOOKUP_TABLE default
  1.0
  2.0
  3.0
  4.0
  5.0
  6.0
  7.0
  8.0
  9.0
 10.0
 11.0
 12.0
 13.0
 14.0
 15.0
 16.0
 17.0
 18.0
 19.0
 20.0
 21.0
 22.0
 23.0
 24.0
 25.0
 26.0
 27.0
 28.0
 29.0
 30.0
 31.0
 32.0
 33.0
 34.0
 35.0
 36.0
 37.0
 38.0
 39.0
 40.0
 41.0
 42.0
 43.0
 44.0
 45.0
 46.0
 47.0
 48.0
 49.0
 50.0
 51.0
 52.0
 53.0
 54.0
 55.0
 56.0
 57.0
 58.0
 59.0
 60.0
 61.0
 62.0
 63.0
 64.0
 65.0
 66.0
 67.0
 68.0
 69.0
 70.0
 71.0
 72.0
 73.0
 74.0
 75.0
 76.0
 77.0
 78.0
 79.0
 80.0
 81.0
 82.0
 83.0
 84.0
 85.0
 86.0
 87.0
 88.0
 89.0
 90.0
 91.0
 92.0
 93.0
 94.0
 95.0
 96.0
 97.0
 98.0
 99.0
100.0
