# vtk DataFile Version 3.0
a stupid file
ASCII
DATASET UNSTRUCTURED_GRID
POINTS 100 float
    4.491187    6.243177    0.362595
    8.447709    1.612933    0.882292
    3.140824    1.278216    8.722584
    1.884322    4.139473    1.032994
    1.749871    3.004763    3.235508
    6.263197    8.409534    3.163638
    4.526166    4.155385    7.417625
    3.575743    5.519517    6.273727
    1.214955    8.104196    4.499449
    3.279487    4.772904    9.076880
    6.487353    4.239885    7.888071
    5.160616    3.609022    5.408617
    1.717384    2.659728    9.096632
    6.967681    6.256024    7.593695
    0.431377    3.479772    7.776066
    0.725324    5.301818    6.195177
    8.398838    7.975355    8.474807
    7.275609    8.532486    1.186554
    0.498844    1.764180    2.249737
    0.083016    6.445979    7.766219
    0.987552    3.333497    5.842363
    7.192871    3.511251    0.263957
    5.686481    6.768252    1.982019
    3.285545    1.696672    3.313501
    6.816788    8.245495    7.245537
    3.598539    8.880690    0.027094
    8.117908    0.342747    6.992643
    6.530770    2.608924    6.493699
    2.389276    6.413796    4.702561
    1.541640    0.915160    0.671217
    3.875778    7.786092    4.471056
    0.550947    8.533587    2.626251
    3.189455    0.436041    1.741082
    4.980476    0.908923    0.138129
    6.291725    1.769517    8.308119
    8.404679    3.089036    2.322793
    4.631401    1.643211    5.114908
    5.473092    5.628180    5.360876
    1.254180    5.519043    9.125899
    2.262952    1.957924    6.971622
    1.291841    4.671992    4.361875
    8.337507    5.027917    5.356906
    3.218699    0.253231    4.722455
    7.834102    1.401820    5.088692
    6.450082    4.905502    1.829412
    7.464806    0.267432    8.972531
    5.060373    8.848415    8.039338
    4.407053    4.134818    1.878469
    0.950570    7.895820    8.872853
    3.880533    4.803871    4.413153
    1.488994    0.241637    5.793059
    2.617131    4.783135    2.842772
    7.190748    6.688149    5.431852
    2.055328    6.222945    7.396753
    5.303933    7.482584    6.145898
    4.064394    6.319263    3.096946
    2.591608    8.460610    3.065387
    8.014375    7.745920    3.920966
    8.678195    5.428081    9.397372
    5.650389    0.766671    6.653025
    0.587677    9.406018    7.580985
    9.352995    2.947856    4.099948
    4.488584    2.774739    8.952589
    3.719379    7.633828    1.607767
    8.373709    4.807904    7.447369
    2.803643    7.076391    9.057281
    6.420074    2.897054    2.025912
    5.287882    9.142043    4.967199
    8.416173    3.112557    5.990810
    4.443469    6.930802    7.887851
    6.201454    1.224950    3.912791
    2.475011    8.721782    7.786335
    7.252018    8.916250    5.380029
    0.372121    4.546705    2.307495
    1.186631    7.803886    6.496527
    2.273733    4.217491    7.416880
    0.684991    6.539743    2.347029
    4.268493    2.190976    7.027887
    8.753089    7.169123    0.991782
    4.699012    1.859702    1.890193
    8.992200    0.078009    4.096532
    0.056656    3.610681    0.329051
    1.916046    8.414356    1.142512
    2.152199    1.949903    4.956467
    5.498702    7.995796    0.389798
    2.830166    2.380291    1.331012
    2.362374    6.080162    1.322989
    5.411360    4.457308    0.156050
    4.654026    0.202663    3.112218
    7.951265    2.850360    7.939045
    3.232287    7.506780    6.364163
    5.840873    4.070167    3.564423
    8.598408    7.698291    6.468970
    3.178752    3.484553    5.769761
    1.462551    0.618846    3.605384
    9.397999    9.075832    0.769431
    0.035137    1.654576    8.563496
    7.821542    6.219510    2.515747
    6.749111    5.998444    0.157980
    6.585303    0.995849    1.360171

CELL_TYPES 100
1
1
1
1
1
1
1
1
1
1
1
1
1
1
1
1
1
1
1
1
1
1
1
1
1
1
1
1
1
1
1
1
1
1
1
1
1
1
1
1
1
1
1
1
1
1
1
1
1
1
1
1
1
1
1
1
1
1
1
1
1
1
1
1
1
1
1
1
1
1
1
1
1
1
1
1
1
1
1
1
1
1
1
1
1
1
1
1
1
1
1
1
1
1
1
1
1
1
1
1

POINT_DATA 100
SCALARS index float 1
LOOKUP_TABLE default
  1.0
  2.0
  3.0
  4.0
  5.0
  6.0
  7.0
  8.0
  9.0
 10.0
 11.0
 12.0
 13.0
 14.0
 15.0
 16.0
 17.0
 18.0
 19.0
 20.0
 21.0
 22.0
 23.0
 24.0
 25.0
 26.0
 27.0
 28.0
 29.0
 30.0
 31.0
 32.0
 33.0
 34.0
 35.0
 36.0
 37.0
 38.0
 39.0
 40.0
 41.0
 42.0
 43.0
 44.0
 45.0
 46.0
 47.0
 48.0
 49.0
 50.0
 51.0
 52.0
 53.0
 54.0
 55.0
 56.0
 57.0
 58.0
 59.0
 60.0
 61.0
 62.0
 63.0
 64.0
 65.0
 66.0
 67.0
 68.0
 69.0
 70.0
 71.0
 72.0
 73.0
 74.0
 75.0
 76.0
 77.0
 78.0
 79.0
 80.0
 81.0
 82.0
 83.0
 84.0
 85.0
 86.0
 87.0
 88.0
 89.0
 90.0
 91.0
 92.0
 93.0
 94.0
 95.0
 96.0
 97.0
 98.0
 99.0
100.0
