# vtk DataFile Version 3.0
a stupid file
ASCII
DATASET UNSTRUCTURED_GRID
POINTS 100 float
    4.561425    1.842636    1.094141
    9.148013    5.724685    0.833822
    2.148880    7.581464    8.888069
    1.320186    7.164837    1.290571
    1.805537    5.308411    1.857420
    7.969613    5.358810    2.695923
    4.970556    5.875998    6.382499
    5.158251    3.062545    6.617683
    0.771080    2.509424    5.153223
    3.794565    4.531542    1.634216
    5.457340    4.944066    8.083793
    5.324210    7.326322    4.499125
    1.371141    0.088512    8.811753
    6.324682    7.716856    8.486882
    1.153289    5.992585    7.862433
    8.571346    1.671710    4.342150
    8.061316    8.691288    8.299157
    7.674821    4.340307    1.000214
    8.884328    2.571791    2.583830
    9.243016    5.820606    6.385254
    1.518237    4.108211    7.095287
    5.414039    0.146145    8.587731
    6.697835    3.836602    2.955992
    4.725933    3.892903    3.286046
    5.789135    9.332911    6.637969
    3.729292    3.991220    8.409422
    8.599810    1.885288    6.330526
    7.257399    5.707686    6.634359
    3.061329    6.485702    3.005493
    1.140292    1.704096    1.589429
    5.687629    4.719733    4.902014
    1.443146    7.868511    3.541415
    3.116445    8.335579    1.355541
    5.558411    4.927370    0.777427
    6.758996    3.464373    8.424601
    8.170653    0.158511    0.918613
    3.896683    3.945685    5.341626
    3.112379    2.110009    3.400022
    1.066611    2.064695    8.912919
    1.685398    1.529981    7.087774
    4.031881    5.804422    4.615950
    6.899270    8.983115    4.766398
    1.960456    4.415998    5.169270
    8.912057    5.759366    4.413829
    6.440621    1.083149    1.308914
    8.623578    2.818090    8.099545
    3.369755    0.162671    8.813691
    5.010871    7.649583    2.549927
    2.786138    2.821908    1.385265
    5.750065    0.015993    3.044121
    9.172469    0.894989    7.971049
    3.350217    8.436334    3.339325
    7.646491    4.384439    5.126449
    2.825089    5.670973    6.812840
    4.323544    1.254292    6.832638
    6.374383    2.843420    5.042899
    1.944409    0.429163    3.427105
    9.098739    3.823072    6.381732
    8.778527    6.841085    8.046111
    6.636828    1.717011    6.674517
    8.953903    4.847074    8.115383
    1.378861    5.719983    3.768875
    3.807532    5.986993    8.525995
    3.281244    6.369122    1.021124
    6.249230    7.412242    6.312355
    3.059991    2.140492    8.767512
    6.615136    8.231476    1.233729
    4.272937    7.742133    6.202276
    8.242988    7.560509    6.258486
    4.338471    7.905888    8.334770
    7.066044    1.871754    3.039421
    2.030876    7.505197    6.890517
    6.983791    6.232420    4.724048
    0.000290    6.735324    2.735215
    9.094395    7.752324    4.458947
    0.561235    8.604362    6.062658
    9.398982    0.654643    2.827867
    5.086772    2.267579    8.453200
    8.827387    2.030030    0.658562
    5.180529    6.920360    0.695370
    8.349241    8.406596    2.524280
    8.796791    7.697384    0.704780
    1.302411    9.131307    1.666690
    2.416250    6.916087    5.008209
    6.148841    3.057620    1.176535
    2.947110    0.862040    1.751650
    2.737491    4.311460    3.329369
    4.890379    9.249273    1.203920
    5.403760    5.776665    3.134824
    7.197255    5.763524    8.632563
    2.849261    9.330841    6.896784
    5.066111    1.897471    3.028859
    7.781767    0.067046    6.488817
    3.148717    2.873285    6.855006
    0.818449    3.805112    3.630446
    0.167032    3.805906    1.179168
    1.448899    4.425597    9.069958
    6.895362    7.091617    2.920315
    7.141523    1.509660    8.605579
    7.265350    6.343682    1.102753

CELL_TYPES 100
1
1
1
1
1
1
1
1
1
1
1
1
1
1
1
1
1
1
1
1
1
1
1
1
1
1
1
1
1
1
1
1
1
1
1
1
1
1
1
1
1
1
1
1
1
1
1
1
1
1
1
1
1
1
1
1
1
1
1
1
1
1
1
1
1
1
1
1
1
1
1
1
1
1
1
1
1
1
1
1
1
1
1
1
1
1
1
1
1
1
1
1
1
1
1
1
1
1
1
1

POINT_DATA 100
SCALARS index float 1
LOOKUP_TABLE default
  1.0
  2.0
  3.0
  4.0
  5.0
  6.0
  7.0
  8.0
  9.0
 10.0
 11.0
 12.0
 13.0
 14.0
 15.0
 16.0
 17.0
 18.0
 19.0
 20.0
 21.0
 22.0
 23.0
 24.0
 25.0
 26.0
 27.0
 28.0
 29.0
 30.0
 31.0
 32.0
 33.0
 34.0
 35.0
 36.0
 37.0
 38.0
 39.0
 40.0
 41.0
 42.0
 43.0
 44.0
 45.0
 46.0
 47.0
 48.0
 49.0
 50.0
 51.0
 52.0
 53.0
 54.0
 55.0
 56.0
 57.0
 58.0
 59.0
 60.0
 61.0
 62.0
 63.0
 64.0
 65.0
 66.0
 67.0
 68.0
 69.0
 70.0
 71.0
 72.0
 73.0
 74.0
 75.0
 76.0
 77.0
 78.0
 79.0
 80.0
 81.0
 82.0
 83.0
 84.0
 85.0
 86.0
 87.0
 88.0
 89.0
 90.0
 91.0
 92.0
 93.0
 94.0
 95.0
 96.0
 97.0
 98.0
 99.0
100.0
