# vtk DataFile Version 3.0
a stupid file
ASCII
DATASET UNSTRUCTURED_GRID
POINTS 100 float
    5.094725    2.997435    1.210676
    0.344626    6.265216    0.595451
    2.151959    8.483871    8.859215
    0.789130    0.221098    1.096707
    1.338422    7.765421    1.497776
    6.992796    3.868116    3.978571
    4.335426    0.745183    6.728836
    6.318014    5.414718    7.103693
    0.360802    0.401194    6.830795
    4.010986    6.515785    1.325374
    5.172707    6.079430    8.602904
    5.241799    8.246538    5.365088
    1.842641    0.897748    8.141297
    6.474170    8.346116    8.583316
    1.064541    4.642798    7.971092
    8.083768    9.041467    4.101713
    7.736902    7.341072    7.284945
    7.892068    5.677197    0.950329
    8.974928    8.696518    2.343919
    0.645247    5.296209    6.127949
    2.347883    8.832065    6.891727
    5.691245    0.720535    8.206615
    5.841088    2.491144    3.013236
    4.443810    3.953430    2.843154
    5.134060    3.668201    7.101080
    3.477068    5.019771    8.653786
    8.837107    1.104304    5.217806
    7.924761    9.330748    7.361514
    3.373747    6.498270    3.530174
    1.821018    4.011124    1.857603
    4.824451    6.323040    4.999733
    1.104191    0.298363    3.074011
    2.660521    0.790813    1.915153
    5.911230    5.964518    1.026397
    6.627903    3.906971    8.409519
    8.244447    0.539995    0.976913
    3.528914    7.255285    6.407531
    3.848406    2.052837    3.025238
    1.244376    2.751320    8.595402
    1.627940    7.054834    7.460114
    3.301349    8.747923    5.096058
    7.227420    1.912388    4.345363
    2.160113    3.624355    4.732392
    9.235705    4.077601    4.771740
    6.913593    2.178163    1.353430
    8.977459    1.954842    7.870239
    3.773332    1.111156    8.617549
    5.258421    6.317580    2.884403
    3.604107    4.562463    1.133211
    6.324062    8.453282    3.348240
    0.042434    8.183020    7.922593
    3.996065    8.405581    3.219524
    6.764848    5.887716    5.212539
    2.449060    1.310163    6.280033
    4.325170    5.484982    6.889056
    5.406630    4.419810    5.232695
    2.162454    5.981704    1.870939
    0.073887    3.452968    6.653109
    9.000578    5.974976    8.017659
    5.734223    2.462083    5.560209
    8.623126    4.035147    8.354059
    2.045966    7.983931    3.357757
    3.408780    7.001313    8.387670
    3.247723    8.364347    1.363824
    6.428276    0.759791    6.347803
    3.228510    3.035452    8.630094
    6.258048    0.305287    0.960511
    3.816439    2.450963    4.986330
    8.109333    4.861459    6.328126
    4.466212    8.665434    8.756743
    7.203427    0.706867    2.676577
    1.364753    9.239484    5.198374
    7.196918    7.829188    5.422159
    0.279136    3.366814    2.956446
    8.689945    6.429465    5.230819
    1.644309    6.743997    5.176270
    9.121058    6.733795    2.699362
    5.178425    2.569334    8.771533
    8.823982    2.448141    0.825004
    5.224526    8.167825    1.657347
    8.244766    4.700326    2.659507
    8.882273    8.065772    0.447893
    1.192385    2.123413    1.645248
    1.777065    5.302556    3.714136
    6.682484    4.178559    1.504821
    3.129381    2.621852    1.247874
    2.649804    1.004411    4.235126
    4.431916    1.116399    1.045631
    4.747819    0.660459    4.759336
    7.161771    6.163751    8.795875
    2.739580    4.266093    6.945296
    5.210965    0.602343    2.814575
    7.514745    2.504566    6.578432
    3.091314    5.369127    5.314491
    0.263617    7.860931    4.256518
    0.032528    4.334142    1.022773
    1.831650    6.044383    9.174000
    7.213188    6.296495    3.306801
    7.153080    1.997470    8.688579
    7.153331    7.510491    1.293697

CELL_TYPES 100
1
1
1
1
1
1
1
1
1
1
1
1
1
1
1
1
1
1
1
1
1
1
1
1
1
1
1
1
1
1
1
1
1
1
1
1
1
1
1
1
1
1
1
1
1
1
1
1
1
1
1
1
1
1
1
1
1
1
1
1
1
1
1
1
1
1
1
1
1
1
1
1
1
1
1
1
1
1
1
1
1
1
1
1
1
1
1
1
1
1
1
1
1
1
1
1
1
1
1
1

POINT_DATA 100
SCALARS index float 1
LOOKUP_TABLE default
  1.0
  2.0
  3.0
  4.0
  5.0
  6.0
  7.0
  8.0
  9.0
 10.0
 11.0
 12.0
 13.0
 14.0
 15.0
 16.0
 17.0
 18.0
 19.0
 20.0
 21.0
 22.0
 23.0
 24.0
 25.0
 26.0
 27.0
 28.0
 29.0
 30.0
 31.0
 32.0
 33.0
 34.0
 35.0
 36.0
 37.0
 38.0
 39.0
 40.0
 41.0
 42.0
 43.0
 44.0
 45.0
 46.0
 47.0
 48.0
 49.0
 50.0
 51.0
 52.0
 53.0
 54.0
 55.0
 56.0
 57.0
 58.0
 59.0
 60.0
 61.0
 62.0
 63.0
 64.0
 65.0
 66.0
 67.0
 68.0
 69.0
 70.0
 71.0
 72.0
 73.0
 74.0
 75.0
 76.0
 77.0
 78.0
 79.0
 80.0
 81.0
 82.0
 83.0
 84.0
 85.0
 86.0
 87.0
 88.0
 89.0
 90.0
 91.0
 92.0
 93.0
 94.0
 95.0
 96.0
 97.0
 98.0
 99.0
100.0
