# vtk DataFile Version 3.0
a stupid file
ASCII
DATASET UNSTRUCTURED_GRID
POINTS 100 float
    4.769955    7.373636    0.618473
    8.720693    2.231822    1.460193
    3.223237    1.968828    9.172721
    2.111700    5.780117    1.390492
    1.977688    8.541374    3.825898
    6.428944    3.795912    3.543752
    5.746143    1.613449    6.923024
    3.779221    1.895327    7.161368
    0.386438    6.507580    4.580616
    3.238122    5.456748    8.782801
    6.101141    3.562859    9.002288
    5.524520    4.986836    4.985435
    1.645371    3.199065    9.185106
    6.544931    5.154265    7.875327
    0.273441    3.165291    7.728706
    9.182444    8.613753    4.420436
    8.316310    8.365717    8.318578
    7.403441    0.711621    1.166766
    0.488507    4.526656    2.404776
    9.410797    5.125484    7.457361
    1.111679    8.419683    5.877448
    6.218314    7.079756    8.476155
    6.282290    1.164735    2.793463
    3.591717    5.910469    2.729325
    6.646960    6.165748    6.153087
    3.019993    9.403660    9.144730
    8.625349    6.457134    6.188682
    6.986965    0.038513    6.980120
    2.262184    6.991987    5.077262
    1.213673    2.162658    2.018516
    3.825514    7.868048    4.189410
    0.051108    2.895828    3.476581
    3.235822    2.017836    1.898343
    5.110599    1.202740    1.173127
    6.356563    1.586752    8.830037
    8.084169    5.244718    2.010382
    4.422146    2.904488    5.207118
    5.580819    7.012328    4.626866
    1.360509    6.142310    8.712072
    2.515221    0.008815    7.209760
    1.980425    2.705169    3.967775
    7.483414    7.547990    4.942511
    2.867214    1.623103    5.396958
    7.968443    1.568490    3.791032
    6.770944    6.757406    2.054031
    8.192807    0.933912    8.380605
    4.508295    7.971548    7.946532
    4.949043    7.374495    2.610253
    1.148203    8.906301    8.570218
    3.986991    4.288437    3.830481
    1.067740    5.054870    5.774462
    2.902719    0.855762    3.491597
    6.729495    1.044820    5.271088
    1.850742    4.426834    7.619742
    5.511751    3.595600    7.083953
    4.805572    2.534449    3.234818
    2.027962    4.683077    3.675300
    8.521819    4.625409    3.861015
    8.080326    6.380385    8.266738
    5.792516    7.955746    6.412293
    0.433925    7.397931    7.461137
    0.451538    0.958932    3.785002
    4.134213    3.673117    8.657216
    4.080271    8.995628    1.693832
    7.588692    3.670873    6.873376
    2.883071    7.415884    8.971681
    6.291004    4.525804    1.493006
    4.729413    0.895386    5.346140
    8.592005    8.459531    6.337137
    4.757594    6.013404    7.607502
    6.443568    8.396449    3.459780
    2.388073    7.402746    7.033585
    6.410779    3.015735    5.388616
    0.274177    6.431992    1.836051
    0.860252    3.065932    5.804915
    1.780003    1.866288    7.114366
    0.651932    8.329193    2.343643
    4.739173    0.508102    8.251157
    8.729073    7.917440    0.914959
    4.747056    3.208652    1.347310
    8.429496    7.061688    3.247415
    9.018516    4.061519    0.678730
    1.932634    0.317041    1.741439
    3.018852    5.160616    5.347694
    6.200647    8.550217    1.375413
    2.675456    3.939705    1.935147
    2.508376    7.759248    1.651481
    4.593260    5.329262    0.805600
    5.524983    5.511815    3.055609
    7.959795    2.898236    8.680543
    3.554978    3.839604    6.750196
    4.771853    0.066203    3.508800
    8.396681    3.039420    5.153015
    3.842574    8.419833    6.111652
    1.786155    6.663299    3.160529
    9.386690    0.368101    1.172412
    0.663365    1.476851    8.727230
    8.165616    8.920557    2.557906
    6.505278    9.019631    8.869319
    6.751213    2.579788    1.460181

CELL_TYPES 100
1
1
1
1
1
1
1
1
1
1
1
1
1
1
1
1
1
1
1
1
1
1
1
1
1
1
1
1
1
1
1
1
1
1
1
1
1
1
1
1
1
1
1
1
1
1
1
1
1
1
1
1
1
1
1
1
1
1
1
1
1
1
1
1
1
1
1
1
1
1
1
1
1
1
1
1
1
1
1
1
1
1
1
1
1
1
1
1
1
1
1
1
1
1
1
1
1
1
1
1

POINT_DATA 100
SCALARS index float 1
LOOKUP_TABLE default
  1.0
  2.0
  3.0
  4.0
  5.0
  6.0
  7.0
  8.0
  9.0
 10.0
 11.0
 12.0
 13.0
 14.0
 15.0
 16.0
 17.0
 18.0
 19.0
 20.0
 21.0
 22.0
 23.0
 24.0
 25.0
 26.0
 27.0
 28.0
 29.0
 30.0
 31.0
 32.0
 33.0
 34.0
 35.0
 36.0
 37.0
 38.0
 39.0
 40.0
 41.0
 42.0
 43.0
 44.0
 45.0
 46.0
 47.0
 48.0
 49.0
 50.0
 51.0
 52.0
 53.0
 54.0
 55.0
 56.0
 57.0
 58.0
 59.0
 60.0
 61.0
 62.0
 63.0
 64.0
 65.0
 66.0
 67.0
 68.0
 69.0
 70.0
 71.0
 72.0
 73.0
 74.0
 75.0
 76.0
 77.0
 78.0
 79.0
 80.0
 81.0
 82.0
 83.0
 84.0
 85.0
 86.0
 87.0
 88.0
 89.0
 90.0
 91.0
 92.0
 93.0
 94.0
 95.0
 96.0
 97.0
 98.0
 99.0
100.0
