# vtk DataFile Version 3.0
a stupid file
ASCII
DATASET UNSTRUCTURED_GRID
POINTS 100 float
    4.231816    6.215594    1.353972
    8.943019    0.595089    0.972159
    1.562824    1.003059    8.813897
    1.313997    9.363954    1.550212
    1.511605    7.490064    2.229552
    7.636962    4.323154    2.605607
    5.533139    5.454464    6.492774
    4.104884    3.964313    6.620224
    0.872209    2.755352    5.775753
    3.848763    8.140177    1.935541
    5.460302    0.072051    8.569730
    5.723350    7.129052    4.834915
    1.040578    2.930803    8.709318
    6.914150    1.769344    8.525326
    0.265923    4.139948    7.317323
    8.774326    2.460248    4.514355
    7.781749    4.231189    8.740895
    7.340487    8.643836    1.279028
    9.134874    2.064323    2.586736
    9.051710    6.010811    7.019926
    0.948597    9.107764    5.049023
    5.905472    3.765504    8.195273
    6.619463    2.678137    3.113980
    4.735207    3.509817    2.994609
    6.172903    9.263043    6.704341
    3.482366    7.915195    8.811912
    8.682442    4.765891    5.342533
    7.391018    4.816618    6.868852
    2.736847    5.670683    5.463738
    0.919555    4.568286    1.266794
    5.328749    4.202118    4.797300
    1.335714    3.182148    3.865411
    3.513636    2.827762    1.429594
    5.413209    9.215737    1.058459
    6.250342    7.663950    8.660196
    8.153820    4.390103    0.674711
    4.421452    2.430761    4.994327
    4.314826    5.835292    4.245422
    1.304975    4.898916    8.975998
    2.350667    8.849782    7.453339
    3.884261    8.193820    3.999553
    7.184293    8.483257    4.651804
    2.595959    1.674584    5.303510
    8.467371    6.584460    4.538100
    6.514663    5.381111    1.254061
    8.184241    7.379610    8.232809
    2.984980    2.460212    8.693085
    5.199567    7.028949    2.906664
    1.815381    6.832987    9.038093
    5.443044    9.009007    3.047871
    0.451557    7.747335    6.428086
    2.919835    6.215051    2.863497
    7.163352    3.476208    5.124765
    2.244851    3.700119    7.309334
    4.205248    0.026295    7.010298
    6.254719    1.636172    4.781620
    2.540954    9.393098    3.129364
    8.562225    0.495964    4.825159
    8.660811    2.539111    7.927219
    5.943060    1.824367    6.748180
    9.227494    0.621188    7.908230
    1.081242    1.201419    3.756846
    3.495472    0.488246    8.822559
    3.594397    0.664710    1.579471
    6.420926    7.271677    6.705454
    3.185261    5.437324    8.382454
    6.552064    3.303530    1.186842
    4.693185    0.431456    5.113551
    8.017622    8.469703    6.564320
    4.928066    2.003229    8.568504
    7.073799    0.730301    3.196447
    1.633701    5.596028    7.130473
    6.853671    5.484617    4.969706
    0.129262    4.583704    3.103935
    0.776591    6.063773    5.385088
    1.295186    0.896441    6.608227
    8.940905    0.072311    2.905648
    4.716952    6.629224    7.893387
    9.180301    6.106563    0.743768
    5.188899    1.780547    1.118595
    9.251888    6.518569    2.699576
    8.985731    2.569996    0.657486
    1.558899    2.775720    1.902508
    2.594632    3.678026    5.338218
    5.901166    7.274235    1.049866
    2.896424    4.727740    1.524725
    2.937214    2.168137    3.227521
    4.824906    4.314841    1.165990
    5.912268    5.176340    3.151019
    7.433034    9.272852    8.330879
    2.886594    9.111202    5.543085
    4.982981    1.527786    3.095181
    7.778905    1.033743    6.589537
    3.852484    1.995185    6.882160
    1.843556    7.259211    4.188238
    9.257714    8.057613    1.176544
    0.842609    8.553726    8.733231
    7.322659    6.968210    2.424217
    6.415309    5.690520    8.380518
    7.141980    1.395681    1.311611

CELL_TYPES 100
1
1
1
1
1
1
1
1
1
1
1
1
1
1
1
1
1
1
1
1
1
1
1
1
1
1
1
1
1
1
1
1
1
1
1
1
1
1
1
1
1
1
1
1
1
1
1
1
1
1
1
1
1
1
1
1
1
1
1
1
1
1
1
1
1
1
1
1
1
1
1
1
1
1
1
1
1
1
1
1
1
1
1
1
1
1
1
1
1
1
1
1
1
1
1
1
1
1
1
1

POINT_DATA 100
SCALARS index float 1
LOOKUP_TABLE default
  1.0
  2.0
  3.0
  4.0
  5.0
  6.0
  7.0
  8.0
  9.0
 10.0
 11.0
 12.0
 13.0
 14.0
 15.0
 16.0
 17.0
 18.0
 19.0
 20.0
 21.0
 22.0
 23.0
 24.0
 25.0
 26.0
 27.0
 28.0
 29.0
 30.0
 31.0
 32.0
 33.0
 34.0
 35.0
 36.0
 37.0
 38.0
 39.0
 40.0
 41.0
 42.0
 43.0
 44.0
 45.0
 46.0
 47.0
 48.0
 49.0
 50.0
 51.0
 52.0
 53.0
 54.0
 55.0
 56.0
 57.0
 58.0
 59.0
 60.0
 61.0
 62.0
 63.0
 64.0
 65.0
 66.0
 67.0
 68.0
 69.0
 70.0
 71.0
 72.0
 73.0
 74.0
 75.0
 76.0
 77.0
 78.0
 79.0
 80.0
 81.0
 82.0
 83.0
 84.0
 85.0
 86.0
 87.0
 88.0
 89.0
 90.0
 91.0
 92.0
 93.0
 94.0
 95.0
 96.0
 97.0
 98.0
 99.0
100.0
