# vtk DataFile Version 3.0
a stupid file
ASCII
DATASET UNSTRUCTURED_GRID
POINTS 100 float
    4.443158    6.413902    0.931586
    9.021556    0.723614    0.742832
    2.312436    2.367629    9.064071
    1.303146    1.715097    1.764832
    1.565463    9.289577    2.471471
    7.927468    8.167949    2.867196
    5.350913    2.347853    6.663032
    4.349304    0.939496    5.628284
    0.460387    3.431489    4.342264
    3.790103    8.592024    1.963841
    5.371546    0.548888    7.583711
    5.379476    7.419153    4.662571
    1.205843    4.240858    8.548697
    6.620191    2.970862    8.552582
    0.981150    2.049255    7.605902
    8.219536    2.331640    4.249599
    7.986398    4.504610    8.389869
    7.455893    8.936354    1.080877
    8.935048    5.800043    2.533747
    9.222037    3.297643    6.588740
    1.319876    2.174453    5.638816
    5.482145    4.596992    8.293733
    6.653817    6.630343    2.984147
    4.694592    7.027547    2.820721
    6.249149    6.038198    6.810927
    4.289367    8.483272    8.372100
    8.244146    8.934646    6.095427
    7.367203    2.319584    6.809565
    2.772278    7.772833    4.602818
    1.137277    5.807351    1.373876
    5.448817    4.396262    4.790023
    1.809332    0.101881    4.474161
    3.357996    3.154178    1.406494
    5.461998    0.137335    1.245570
    6.380224    8.405448    8.334420
    8.083066    4.625128    1.018115
    4.203278    2.861714    5.095892
    3.784059    4.067320    3.556239
    1.349411    6.209029    8.894086
    2.250587    7.344289    7.059932
    4.157333    5.861898    4.357434
    7.000941    8.853961    4.528491
    2.362124    3.722441    4.919619
    8.658788    5.616672    4.520789
    6.402433    5.687644    1.233665
    8.317757    8.050375    7.988230
    3.195541    4.171380    8.760716
    5.012820    1.297430    2.857970
    2.608244    7.175273    1.179466
    5.695630    3.171446    3.020557
    9.100382    6.209789    7.802905
    3.074683    1.141695    3.326305
    7.422210    4.071987    4.830908
    2.923614    1.784375    7.210123
    4.237976    6.909928    6.662062
    6.150032    2.117805    4.839507
    2.149248    3.055878    2.997125
    8.927880    1.371623    5.854755
    8.621564    2.560981    8.348508
    6.236024    7.992765    6.379722
    8.992238    0.651051    7.843283
    1.151686    7.587236    3.436203
    3.797884    0.982044    8.820028
    3.343267    1.010390    1.335349
    6.391413    4.054546    6.596992
    3.249690    6.803667    8.706881
    6.520830    3.381654    1.132884
    4.393012    4.115629    6.656084
    8.156162    4.984418    6.452363
    4.603219    2.781339    8.467073
    7.293908    4.734918    2.948359
    2.167101    3.611415    6.910931
    6.715539    5.944318    4.861995
    9.398577    9.182905    3.764966
    9.243922    7.543668    4.924982
    0.539557    6.026612    6.009537
    9.045476    3.803106    2.566616
    5.222490    6.711388    8.391805
    8.813318    6.450197    0.646304
    5.010426    2.075333    1.015478
    8.924865    1.342019    2.642568
    8.785906    2.705609    0.914472
    1.246199    3.810077    1.379825
    2.431544    5.955065    5.364093
    5.967022    7.633984    1.382466
    3.019482    5.160172    1.570209
    2.779503    6.490076    3.051013
    4.835764    4.456344    1.058507
    5.508542    8.816048    3.193016
    7.120795    1.038046    8.433951
    2.970468    5.419148    7.214018
    5.332745    5.132886    2.873904
    7.955121    6.971267    6.343152
    3.541688    8.780878    6.541151
    1.149572    5.264207    3.934653
    9.326931    8.260882    1.327907
    1.232503    0.665726    9.028069
    7.094453    0.559549    2.854240
    7.198969    6.490141    8.602552
    7.168522    1.489650    1.085255

CELL_TYPES 100
1
1
1
1
1
1
1
1
1
1
1
1
1
1
1
1
1
1
1
1
1
1
1
1
1
1
1
1
1
1
1
1
1
1
1
1
1
1
1
1
1
1
1
1
1
1
1
1
1
1
1
1
1
1
1
1
1
1
1
1
1
1
1
1
1
1
1
1
1
1
1
1
1
1
1
1
1
1
1
1
1
1
1
1
1
1
1
1
1
1
1
1
1
1
1
1
1
1
1
1

POINT_DATA 100
SCALARS index float 1
LOOKUP_TABLE default
  1.0
  2.0
  3.0
  4.0
  5.0
  6.0
  7.0
  8.0
  9.0
 10.0
 11.0
 12.0
 13.0
 14.0
 15.0
 16.0
 17.0
 18.0
 19.0
 20.0
 21.0
 22.0
 23.0
 24.0
 25.0
 26.0
 27.0
 28.0
 29.0
 30.0
 31.0
 32.0
 33.0
 34.0
 35.0
 36.0
 37.0
 38.0
 39.0
 40.0
 41.0
 42.0
 43.0
 44.0
 45.0
 46.0
 47.0
 48.0
 49.0
 50.0
 51.0
 52.0
 53.0
 54.0
 55.0
 56.0
 57.0
 58.0
 59.0
 60.0
 61.0
 62.0
 63.0
 64.0
 65.0
 66.0
 67.0
 68.0
 69.0
 70.0
 71.0
 72.0
 73.0
 74.0
 75.0
 76.0
 77.0
 78.0
 79.0
 80.0
 81.0
 82.0
 83.0
 84.0
 85.0
 86.0
 87.0
 88.0
 89.0
 90.0
 91.0
 92.0
 93.0
 94.0
 95.0
 96.0
 97.0
 98.0
 99.0
100.0
