# vtk DataFile Version 3.0
a stupid file
ASCII
DATASET UNSTRUCTURED_GRID
POINTS 100 float
    4.588956    6.934128    0.939307
    9.009440    1.198700    0.703790
    2.219147    3.324576    8.567086
    1.233376    2.825986    1.503682
    1.783590    1.022775    2.178676
    7.781426    2.222208    3.010151
    4.823961    8.708856    6.914659
    5.538116    6.227561    6.454695
    0.942212    3.264556    5.690543
    3.868956    0.165824    1.811977
    5.349892    0.644003    8.356898
    5.494059    7.568304    4.654777
    1.561339    5.205952    8.733426
    6.252795    2.964155    8.808422
    1.233205    1.192119    7.503401
    8.518472    0.938393    4.354934
    7.966789    3.820889    8.234752
    7.735134    9.281063    1.457479
    8.881809    8.878974    3.046009
    9.390697    8.559980    6.359568
    1.795167    7.937138    6.870918
    5.667906    4.910109    8.601399
    6.474036    0.719676    2.828305
    4.608299    0.898599    3.526057
    5.546880    2.815834    6.943052
    3.668105    9.035919    8.673344
    8.877165    4.308300    6.519223
    7.215867    8.737280    6.885366
    3.264050    3.869544    3.266649
    1.086019    6.895166    1.177435
    5.681684    5.352342    4.567127
    1.437790    5.586681    3.298346
    2.964351    3.969827    1.289937
    5.688225    0.365504    1.000126
    6.541647    8.456834    8.747289
    8.419398    5.153326    0.621819
    4.043874    4.312089    5.057406
    3.215001    8.891496    3.568221
    0.905175    7.072900    8.443789
    1.601221    5.897806    6.857298
    3.952736    6.312410    4.871442
    6.761292    0.083633    4.782140
    2.244223    5.186027    5.088163
    9.294094    5.515637    4.535161
    6.681674    5.966538    1.192372
    8.461227    7.591190    7.959338
    3.553890    5.281106    8.565369
    5.020052    4.701756    2.793509
    2.856203    8.018621    1.107517
    5.839678    6.521619    2.920803
    9.099083    5.503380    8.142765
    3.398729    5.853600    3.004836
    7.521891    4.808862    5.136250
    2.910150    0.252946    6.938161
    4.554207    4.565673    6.975591
    6.044533    3.460900    5.116555
    2.052376    7.434630    2.843249
    9.196593    6.561035    6.404198
    8.909742    2.105777    7.821269
    6.634837    4.493957    6.900866
    9.092799    0.073844    8.101461
    1.339214    3.643350    3.760436
    3.537446    1.594453    8.441059
    3.272637    1.993959    1.262374
    5.994982    0.841449    6.471491
    2.901407    7.196670    8.492933
    6.626800    3.783055    1.257121
    4.269423    0.544758    5.466386
    8.340995    0.873349    6.345980
    4.316456    3.431007    8.605306
    6.986590    8.253785    3.220775
    2.451947    2.038532    6.162465
    7.237681    6.632327    4.365638
    9.157064    3.606665    2.573297
    9.012965    7.507770    4.651868
    0.771774    0.796729    5.597985
    9.281614    6.941433    2.752654
    5.002347    7.208056    8.231565
    8.547052    7.134303    0.898539
    5.235596    2.352877    1.403502
    8.123470    5.318774    2.592859
    8.480784    3.156759    0.744299
    1.174527    4.849915    1.456367
    2.199272    7.274213    4.839257
    6.274596    7.917015    1.379297
    2.849674    5.956681    1.084114
    2.829254    2.032232    3.930723
    4.656216    4.937304    0.840992
    5.187654    2.809833    3.419918
    7.247859    1.249742    8.532072
    2.665915    3.950909    6.712567
    5.012070    8.341690    2.873848
    7.577427    2.778742    6.489212
    3.561003    6.296077    6.832627
    0.859784    1.702532    3.817111
    0.230605    8.793797    1.199170
    1.690839    9.252006    8.889506
    6.817598    3.957208    3.256657
    6.895595    6.495043    8.555012
    7.134854    1.742317    1.179426

CELL_TYPES 100
1
1
1
1
1
1
1
1
1
1
1
1
1
1
1
1
1
1
1
1
1
1
1
1
1
1
1
1
1
1
1
1
1
1
1
1
1
1
1
1
1
1
1
1
1
1
1
1
1
1
1
1
1
1
1
1
1
1
1
1
1
1
1
1
1
1
1
1
1
1
1
1
1
1
1
1
1
1
1
1
1
1
1
1
1
1
1
1
1
1
1
1
1
1
1
1
1
1
1
1

POINT_DATA 100
SCALARS index float 1
LOOKUP_TABLE default
  1.0
  2.0
  3.0
  4.0
  5.0
  6.0
  7.0
  8.0
  9.0
 10.0
 11.0
 12.0
 13.0
 14.0
 15.0
 16.0
 17.0
 18.0
 19.0
 20.0
 21.0
 22.0
 23.0
 24.0
 25.0
 26.0
 27.0
 28.0
 29.0
 30.0
 31.0
 32.0
 33.0
 34.0
 35.0
 36.0
 37.0
 38.0
 39.0
 40.0
 41.0
 42.0
 43.0
 44.0
 45.0
 46.0
 47.0
 48.0
 49.0
 50.0
 51.0
 52.0
 53.0
 54.0
 55.0
 56.0
 57.0
 58.0
 59.0
 60.0
 61.0
 62.0
 63.0
 64.0
 65.0
 66.0
 67.0
 68.0
 69.0
 70.0
 71.0
 72.0
 73.0
 74.0
 75.0
 76.0
 77.0
 78.0
 79.0
 80.0
 81.0
 82.0
 83.0
 84.0
 85.0
 86.0
 87.0
 88.0
 89.0
 90.0
 91.0
 92.0
 93.0
 94.0
 95.0
 96.0
 97.0
 98.0
 99.0
100.0
