# vtk DataFile Version 3.0
a stupid file
ASCII
DATASET UNSTRUCTURED_GRID
POINTS 100 float
    4.564354    1.883627    1.043128
    8.780910    6.108375    0.965420
    3.286819    6.469837    8.928197
    1.961707    0.255574    1.787572
    1.611972    1.518585    3.362809
    6.422471    6.285836    3.197424
    5.046182    7.165906    6.925313
    3.406986    8.160302    6.355922
    0.678496    7.213168    4.197284
    3.204818    0.506725    9.121780
    6.125120    8.301388    8.176087
    5.208286    4.688000    4.763803
    1.783383    7.777274    9.109656
    6.511560    0.766127    7.654602
    0.284471    8.279424    7.884025
    0.156962    7.209975    6.128084
    8.360270    3.613973    8.082470
    7.615158    4.264294    1.400725
    0.385506    7.851628    2.322028
    0.081712    0.843839    7.595925
    1.113581    5.452536    6.059793
    6.138371    2.449986    8.667266
    6.347638    3.753682    2.864260
    3.329020    8.835778    2.976408
    6.657112    2.521005    6.706431
    3.386685    4.477804    9.075610
    8.350001    3.210245    5.894640
    6.774232    6.036591    6.700154
    2.378556    6.666773    5.097870
    1.314001    6.081505    1.449202
    3.977291    7.705380    4.493592
    0.395073    5.515395    3.133161
    3.322373    5.743909    1.511556
    5.158081    5.011516    0.874431
    6.341121    6.378143    8.680347
    8.119636    8.887327    2.070266
    4.680249    2.692153    5.370455
    5.684986    6.611340    5.052648
    1.414014    1.394946    8.983915
    2.100620    5.316935    7.794225
    1.329183    4.085735    4.203130
    7.888434    6.720789    5.186804
    3.050050    1.580317    4.751319
    7.578463    1.911713    4.380354
    6.745156    0.933399    2.010535
    8.122836    5.612695    8.172735
    4.528692    3.344220    7.886483
    4.831985    0.678231    2.616441
    1.191548    3.837213    8.817416
    3.340100    5.124048    4.198388
    1.312921    2.369913    5.669167
    2.949619    3.070967    3.418722
    6.668116    8.154510    5.865429
    1.959768    9.352663    7.668373
    5.117522    9.149479    6.670988
    4.825931    5.100932    2.844616
    2.383279    6.522487    3.102119
    8.336574    6.865154    3.243056
    8.004415    1.712887    8.591603
    5.765698    4.310356    6.647040
    0.558186    3.735980    6.922828
    0.042112    2.514587    4.130938
    4.032215    8.234154    8.341160
    3.933013    3.666716    1.705517
    8.003503    8.976874    7.111472
    3.082629    2.501818    9.022628
    6.432295    8.071499    1.372316
    4.767714    0.565480    4.891430
    8.569810    5.167697    6.246783
    4.616450    1.347998    7.981821
    6.348072    0.069715    3.770454
    2.488402    3.403799    7.339379
    6.609482    0.715783    5.657282
    0.099403    0.948960    2.183339
    1.094344    0.398877    5.928448
    1.851724    7.219321    7.190090
    0.651109    2.884105    2.261966
    4.702224    5.464166    7.918055
    8.784246    2.267997    0.866389
    4.557247    7.301242    1.288597
    8.787798    8.696477    3.945611
    0.117881    8.944249    0.668450
    2.006771    4.209354    1.624865
    2.884323    3.572258    5.377598
    6.383198    2.707088    1.160263
    2.574347    7.710737    1.504680
    2.474918    2.210064    1.672636
    5.069359    9.393769    0.744517
    5.315714    7.942906    3.026587
    7.954277    7.574215    8.536245
    3.393568    0.725967    6.526635
    5.688128    2.086638    3.751088
    8.591685    0.967143    5.822877
    3.406425    5.426487    6.283237
    1.438019    8.969117    3.614415
    0.128529    4.265220    0.913150
    0.526258    6.373458    8.439714
    8.115581    2.805240    2.673701
    6.596966    4.395837    8.611207
    6.797348    6.101468    1.237159

CELL_TYPES 100
1
1
1
1
1
1
1
1
1
1
1
1
1
1
1
1
1
1
1
1
1
1
1
1
1
1
1
1
1
1
1
1
1
1
1
1
1
1
1
1
1
1
1
1
1
1
1
1
1
1
1
1
1
1
1
1
1
1
1
1
1
1
1
1
1
1
1
1
1
1
1
1
1
1
1
1
1
1
1
1
1
1
1
1
1
1
1
1
1
1
1
1
1
1
1
1
1
1
1
1

POINT_DATA 100
SCALARS index float 1
LOOKUP_TABLE default
  1.0
  2.0
  3.0
  4.0
  5.0
  6.0
  7.0
  8.0
  9.0
 10.0
 11.0
 12.0
 13.0
 14.0
 15.0
 16.0
 17.0
 18.0
 19.0
 20.0
 21.0
 22.0
 23.0
 24.0
 25.0
 26.0
 27.0
 28.0
 29.0
 30.0
 31.0
 32.0
 33.0
 34.0
 35.0
 36.0
 37.0
 38.0
 39.0
 40.0
 41.0
 42.0
 43.0
 44.0
 45.0
 46.0
 47.0
 48.0
 49.0
 50.0
 51.0
 52.0
 53.0
 54.0
 55.0
 56.0
 57.0
 58.0
 59.0
 60.0
 61.0
 62.0
 63.0
 64.0
 65.0
 66.0
 67.0
 68.0
 69.0
 70.0
 71.0
 72.0
 73.0
 74.0
 75.0
 76.0
 77.0
 78.0
 79.0
 80.0
 81.0
 82.0
 83.0
 84.0
 85.0
 86.0
 87.0
 88.0
 89.0
 90.0
 91.0
 92.0
 93.0
 94.0
 95.0
 96.0
 97.0
 98.0
 99.0
100.0
