# vtk DataFile Version 3.0
a stupid file
ASCII
DATASET UNSTRUCTURED_GRID
POINTS 100 float
    5.010072    8.779419    1.535719
    0.606599    1.389178    0.984678
    2.602837    3.826509    8.914060
    0.712375    5.442214    0.931766
    1.337500    3.552363    1.125403
    6.432101    1.935716    3.624445
    4.881692    4.017820    7.142446
    6.248694    8.860007    6.657726
    0.706908    3.515825    6.345816
    4.055474    2.493096    1.380308
    5.370461    1.316392    7.786719
    4.946378    8.354002    5.226490
    1.931507    5.530354    8.110087
    6.383614    3.791381    8.679602
    1.102478    9.277307    8.187429
    8.158394    8.434334    3.288465
    8.187210    2.081235    6.771314
    8.047033    1.410267    0.754468
    9.307381    5.725786    2.728681
    0.588703    8.324516    6.249394
    2.884949    2.750175    7.245749
    5.876067    5.653625    8.155940
    5.993157    9.209139    3.307380
    4.743007    1.256260    2.793595
    5.384608    6.893835    6.665951
    3.806961    0.522171    8.748318
    8.888852    1.701607    4.889527
    8.562583    3.904387    7.520554
    3.049343    4.025209    3.221171
    1.616284    9.272260    1.760861
    4.551111    6.461620    4.713374
    1.766378    7.601968    2.850510
    2.499135    6.151696    1.487104
    5.845573    1.613359    1.163639
    6.641096    8.953969    8.616596
    8.169160    5.140580    1.100864
    3.542729    0.913781    6.804240
    3.716367    8.997409    3.115929
    1.362921    7.358618    8.688165
    1.281839    1.557437    7.161051
    3.285659    0.024961    5.031060
    7.085704    0.894272    5.201835
    2.088414    3.484497    4.889769
    9.323204    4.949079    5.143029
    6.478053    7.494653    1.070901
    9.070663    6.054593    8.450663
    3.829550    6.169284    8.169029
    4.797218    3.110625    3.560529
    3.443377    0.589407    1.413890
    6.042508    5.830910    3.535069
    0.804709    3.131809    8.306148
    3.850707    5.836683    2.943416
    6.679608    6.012805    5.422084
    3.043929    4.665009    6.691050
    4.315367    8.522750    7.116802
    5.212084    4.660424    5.277605
    2.206321    2.017848    2.068859
    0.023545    6.425156    6.521946
    9.123113    1.283909    8.348748
    5.557679    2.692399    5.362399
    8.589522    8.787920    8.192442
    1.798561    5.651718    3.292426
    4.150519    2.550806    8.781425
    3.192195    4.291780    1.240727
    6.768424    3.490476    6.739730
    3.329489    8.007244    8.778804
    6.210052    5.516053    0.956281
    3.474934    2.054433    4.626317
    7.806467    7.557456    6.645471
    4.503495    4.502681    9.045504
    7.558332    6.677590    2.542338
    1.178943    0.771914    5.322323
    6.911273    8.324544    4.848261
    0.150714    0.440152    3.225567
    8.350116    6.935646    4.824008
    2.257689    7.736430    5.026271
    8.493438    3.898980    2.743110
    5.257641    7.505603    8.592898
    8.445567    7.105435    0.800887
    5.084864    4.136914    1.868245
    8.205653    1.800673    2.709525
    8.803225    3.258283    0.866920
    0.983056    7.421865    1.018748
    1.022964    3.813265    3.156448
    6.914920    9.388707    1.541616
    3.158420    8.037085    1.380740
    2.109157    0.680123    3.552400
    4.573933    6.629087    1.255372
    5.077604    0.858589    4.724872
    7.189512    1.778511    8.478473
    2.392615    7.920833    7.013482
    5.004431    7.468995    3.046353
    7.607861    5.622516    7.150035
    2.702643    5.787137    5.071211
    0.445533    8.106048    4.265170
    9.147854    8.970988    1.122275
    2.281228    1.806058    8.902281
    6.625022    3.919254    3.456247
    7.259773    7.055443    8.502601
    6.921691    3.255927    1.546591

CELL_TYPES 100
1
1
1
1
1
1
1
1
1
1
1
1
1
1
1
1
1
1
1
1
1
1
1
1
1
1
1
1
1
1
1
1
1
1
1
1
1
1
1
1
1
1
1
1
1
1
1
1
1
1
1
1
1
1
1
1
1
1
1
1
1
1
1
1
1
1
1
1
1
1
1
1
1
1
1
1
1
1
1
1
1
1
1
1
1
1
1
1
1
1
1
1
1
1
1
1
1
1
1
1

POINT_DATA 100
SCALARS index float 1
LOOKUP_TABLE default
  1.0
  2.0
  3.0
  4.0
  5.0
  6.0
  7.0
  8.0
  9.0
 10.0
 11.0
 12.0
 13.0
 14.0
 15.0
 16.0
 17.0
 18.0
 19.0
 20.0
 21.0
 22.0
 23.0
 24.0
 25.0
 26.0
 27.0
 28.0
 29.0
 30.0
 31.0
 32.0
 33.0
 34.0
 35.0
 36.0
 37.0
 38.0
 39.0
 40.0
 41.0
 42.0
 43.0
 44.0
 45.0
 46.0
 47.0
 48.0
 49.0
 50.0
 51.0
 52.0
 53.0
 54.0
 55.0
 56.0
 57.0
 58.0
 59.0
 60.0
 61.0
 62.0
 63.0
 64.0
 65.0
 66.0
 67.0
 68.0
 69.0
 70.0
 71.0
 72.0
 73.0
 74.0
 75.0
 76.0
 77.0
 78.0
 79.0
 80.0
 81.0
 82.0
 83.0
 84.0
 85.0
 86.0
 87.0
 88.0
 89.0
 90.0
 91.0
 92.0
 93.0
 94.0
 95.0
 96.0
 97.0
 98.0
 99.0
100.0
