# vtk DataFile Version 3.0
a stupid file
ASCII
DATASET UNSTRUCTURED_GRID
POINTS 100 float
    4.713788    3.346120    1.047729
    8.835663    7.495562    1.574121
    2.966228    7.691272    9.125304
    2.275527    2.179178    1.676005
    1.649340    6.869459    3.481835
    6.798043    1.437543    3.098158
    5.717777    4.653410    6.657911
    3.943152    5.713793    6.940146
    0.065220    5.699855    4.590314
    2.981797    1.569919    9.208385
    5.839147    8.809568    8.608565
    5.673530    5.362059    4.754919
    1.341557    8.893932    8.953639
    6.860067    1.100051    8.738536
    0.192298    7.924007    7.532729
    8.923772    7.567578    4.156208
    8.782861    4.174693    7.513819
    7.202643    6.329980    0.916107
    0.841796    0.874921    2.175140
    0.404835    0.485515    7.506488
    1.188080    0.419836    5.664700
    6.298510    3.050406    8.688973
    6.459962    8.548107    3.212333
    3.521330    3.495702    2.646373
    6.448587    8.997215    6.622254
    3.088938    5.670737    9.130761
    8.482177    9.031838    6.310510
    7.181920    3.144836    6.897164
    2.039296    8.134038    5.078689
    1.312516    8.102948    1.654145
    3.437733    6.882807    4.378369
    0.286524    1.214736    4.066207
    3.195238    7.407966    1.635413
    5.269524    6.484322    1.417622
    6.468410    6.752766    8.541142
    8.313988    1.353586    1.790344
    4.183423    4.216731    5.438733
    5.313856    7.323033    4.913396
    1.275714    2.687336    8.912254
    2.561538    3.912420    7.227862
    2.243825    0.809259    4.000201
    7.181432    8.029910    5.024203
    2.845321    2.732370    5.516617
    7.966375    0.252085    4.209499
    7.000052    2.866454    1.713523
    8.433542    6.376050    8.121773
    4.538305    3.379417    7.790115
    4.989875    4.821430    2.950184
    1.254275    4.724277    8.941662
    3.881148    1.959704    3.875661
    0.950727    6.758149    6.038816
    2.888050    8.474388    3.299253
    6.723188    1.577870    5.091779
    2.215118    8.975473    7.156369
    5.414688    7.312919    6.935328
    4.759569    0.233757    3.261368
    1.969728    2.763478    3.674187
    8.699389    2.841914    3.497207
    8.295363    2.465646    8.433352
    6.026130    1.496655    6.964545
    0.380566    2.454195    7.109365
    0.925933    8.810607    3.513597
    3.886935    9.298804    8.371686
    3.624509    5.357743    1.590748
    7.309249    6.680686    6.496071
    3.058938    3.567985    9.134158
    6.266722    0.709854    1.312646
    4.902669    2.353821    5.549287
    8.595750    1.534947    5.799071
    4.889866    1.588409    8.607808
    6.341159    6.553333    3.293805
    2.296510    1.933734    7.363984
    6.498098    3.566698    5.065705
    0.373442    2.784424    1.808775
    0.803814    4.759725    6.223970
    2.012455    5.822485    7.452026
    0.307936    4.764753    2.475171
    5.073115    5.174257    8.499616
    8.464204    3.767822    0.691964
    4.860094    8.428335    1.178907
    7.910186    4.584471    4.080876
    9.221889    9.296709    0.795406
    1.519357    6.114037    1.616683
    2.524110    5.531842    5.535876
    6.192032    4.659198    1.348692
    2.707081    0.225375    1.693174
    1.984250    4.169700    1.558720
    4.383899    1.378961    1.227797
    5.397393    2.855296    2.918299
    7.692767    8.241058    8.004369
    3.502815    7.593161    6.416681
    4.684146    7.636070    3.007650
    8.768109    3.510838    5.533800
    3.971879    1.037852    6.733215
    1.787418    4.751591    3.821384
    9.087401    5.664522    0.810044
    1.154525    6.864337    8.929527
    8.136791    5.957847    2.644918
    7.019730    4.858972    8.164635
    7.016157    8.282582    1.309678

CELL_TYPES 100
1
1
1
1
1
1
1
1
1
1
1
1
1
1
1
1
1
1
1
1
1
1
1
1
1
1
1
1
1
1
1
1
1
1
1
1
1
1
1
1
1
1
1
1
1
1
1
1
1
1
1
1
1
1
1
1
1
1
1
1
1
1
1
1
1
1
1
1
1
1
1
1
1
1
1
1
1
1
1
1
1
1
1
1
1
1
1
1
1
1
1
1
1
1
1
1
1
1
1
1

POINT_DATA 100
SCALARS index float 1
LOOKUP_TABLE default
  1.0
  2.0
  3.0
  4.0
  5.0
  6.0
  7.0
  8.0
  9.0
 10.0
 11.0
 12.0
 13.0
 14.0
 15.0
 16.0
 17.0
 18.0
 19.0
 20.0
 21.0
 22.0
 23.0
 24.0
 25.0
 26.0
 27.0
 28.0
 29.0
 30.0
 31.0
 32.0
 33.0
 34.0
 35.0
 36.0
 37.0
 38.0
 39.0
 40.0
 41.0
 42.0
 43.0
 44.0
 45.0
 46.0
 47.0
 48.0
 49.0
 50.0
 51.0
 52.0
 53.0
 54.0
 55.0
 56.0
 57.0
 58.0
 59.0
 60.0
 61.0
 62.0
 63.0
 64.0
 65.0
 66.0
 67.0
 68.0
 69.0
 70.0
 71.0
 72.0
 73.0
 74.0
 75.0
 76.0
 77.0
 78.0
 79.0
 80.0
 81.0
 82.0
 83.0
 84.0
 85.0
 86.0
 87.0
 88.0
 89.0
 90.0
 91.0
 92.0
 93.0
 94.0
 95.0
 96.0
 97.0
 98.0
 99.0
100.0
