# vtk DataFile Version 3.0
a stupid file
ASCII
DATASET UNSTRUCTURED_GRID
POINTS 100 float
    5.052493    7.301823    1.399976
    0.034604    1.745594    0.536023
    2.429154    3.855299    9.187558
    1.123599    4.345426    1.215275
    1.348209    2.502209    1.958242
    7.382531    6.254821    3.246089
    4.420088    6.521486    7.114563
    5.997047    2.779149    6.417151
    0.473681    6.300032    6.477163
    3.923903    1.248581    1.103073
    5.043667    1.289060    8.765428
    5.494428    7.916853    5.256226
    1.738544    6.104347    8.853334
    6.411048    3.539177    8.762552
    0.776537    0.187851    7.208466
    8.134449    9.347891    4.380183
    7.906503    3.361107    7.446548
    7.868337    0.695410    1.134882
    8.847238    2.832819    2.374985
    0.456851    2.895753    5.977643
    2.313739    4.768278    7.411866
    5.601106    5.292634    8.160935
    5.874373    4.950650    3.070338
    4.221142    6.181964    3.158743
    5.190650    9.211669    7.407981
    3.433871    0.127108    8.461405
    9.018950    8.334509    5.940987
    7.646550    5.324847    7.080065
    3.338759    8.652937    3.274522
    1.645918    8.197338    2.153568
    5.371546    5.966149    4.822010
    0.778579    2.331034    3.867741
    2.843974    4.973838    2.020780
    5.911693    1.090945    1.257375
    6.737115    8.417596    8.712399
    8.593310    5.546735    1.094588
    3.458273    5.996349    5.441511
    3.774554    3.927381    3.448666
    1.245871    7.924642    8.178988
    1.566932    2.925505    7.640975
    3.498057    7.974442    5.149126
    7.119134    2.014176    4.885363
    2.200603    5.099179    3.910348
    9.422013    4.490794    4.199477
    6.947683    6.665884    1.337720
    8.835103    7.174868    7.929547
    3.660593    5.572352    8.702743
    5.117940    9.200232    2.543219
    3.533503    8.707321    1.281806
    6.742830    1.265411    3.068964
    0.200142    4.372885    7.321196
    3.676423    1.188284    3.086760
    7.291048    5.466944    5.082052
    2.432098    6.738272    7.087814
    4.469112    1.570566    6.869509
    5.906709    4.039604    4.867018
    2.117169    0.669383    1.736101
    9.200820    1.037254    5.692424
    8.824311    1.589377    7.582244
    6.137280    0.541805    5.817039
    8.530516    9.134957    8.193713
    1.317878    0.430874    3.553841
    3.258670    2.121954    8.363079
    3.245361    3.051909    1.639437
    6.351542    6.793393    6.672445
    3.220540    7.580304    8.722160
    6.605842    4.514995    1.246116
    4.073328    1.994339    4.923760
    8.115725    3.690022    5.484917
    4.428059    3.729227    8.584680
    7.010446    3.257484    3.045196
    1.561367    7.720243    5.578729
    7.433483    7.461794    5.067134
    9.213640    6.854240    2.709719
    9.083307    6.408532    4.655047
    1.346409    4.659439    5.664461
    8.933266    0.883465    2.817301
    5.179529    7.170372    8.847663
    8.995996    7.481106    0.774054
    5.234220    3.070297    1.423784
    8.186966    8.517025    2.284298
    8.809918    3.638306    0.529689
    1.205891    6.335223    1.399439
    2.130506    7.092481    3.762742
    6.537065    8.620064    1.158601
    3.146732    6.748867    1.150399
    2.774046    0.398206    4.924419
    4.738716    5.293955    1.442056
    4.707793    0.150833    4.467413
    7.028495    1.589521    8.489355
    2.539548    1.043399    6.808809
    5.185356    2.493832    3.338263
    7.221418    8.591113    6.779652
    3.151463    3.000650    6.399967
    0.324386    8.204993    4.083821
    0.275788    9.303351    1.205197
    1.633876    1.041971    8.803117
    6.567445    8.108912    3.384547
    7.135880    6.455635    8.700978
    7.224462    2.596838    1.163486

CELL_TYPES 100
1
1
1
1
1
1
1
1
1
1
1
1
1
1
1
1
1
1
1
1
1
1
1
1
1
1
1
1
1
1
1
1
1
1
1
1
1
1
1
1
1
1
1
1
1
1
1
1
1
1
1
1
1
1
1
1
1
1
1
1
1
1
1
1
1
1
1
1
1
1
1
1
1
1
1
1
1
1
1
1
1
1
1
1
1
1
1
1
1
1
1
1
1
1
1
1
1
1
1
1

POINT_DATA 100
SCALARS index float 1
LOOKUP_TABLE default
  1.0
  2.0
  3.0
  4.0
  5.0
  6.0
  7.0
  8.0
  9.0
 10.0
 11.0
 12.0
 13.0
 14.0
 15.0
 16.0
 17.0
 18.0
 19.0
 20.0
 21.0
 22.0
 23.0
 24.0
 25.0
 26.0
 27.0
 28.0
 29.0
 30.0
 31.0
 32.0
 33.0
 34.0
 35.0
 36.0
 37.0
 38.0
 39.0
 40.0
 41.0
 42.0
 43.0
 44.0
 45.0
 46.0
 47.0
 48.0
 49.0
 50.0
 51.0
 52.0
 53.0
 54.0
 55.0
 56.0
 57.0
 58.0
 59.0
 60.0
 61.0
 62.0
 63.0
 64.0
 65.0
 66.0
 67.0
 68.0
 69.0
 70.0
 71.0
 72.0
 73.0
 74.0
 75.0
 76.0
 77.0
 78.0
 79.0
 80.0
 81.0
 82.0
 83.0
 84.0
 85.0
 86.0
 87.0
 88.0
 89.0
 90.0
 91.0
 92.0
 93.0
 94.0
 95.0
 96.0
 97.0
 98.0
 99.0
100.0
