# vtk DataFile Version 3.0
a stupid file
ASCII
DATASET UNSTRUCTURED_GRID
POINTS 100 float
    4.955466    2.255277    1.279690
    9.105923    6.348587    0.371270
    2.175713    8.482542    8.914810
    1.200822    8.333730    1.380338
    1.510749    6.436603    1.932189
    7.560158    8.648895    3.318922
    4.323547    2.699957    7.175099
    5.264133    0.023418    6.410339
    0.294658    4.631932    5.992662
    3.888313    5.355706    1.363037
    5.332508    5.524165    8.663364
    5.576345    7.761085    4.851629
    1.600485    0.967850    8.804527
    6.136440    7.715095    8.409840
    0.772584    5.750788    7.586938
    8.530569    0.781781    4.634012
    7.665666    8.791942    7.667610
    7.882666    4.905737    1.188214
    9.016072    6.073497    2.351049
    9.187214    1.702482    6.387491
    1.696213    1.703417    6.919610
    5.488362    0.181761    8.392591
    6.036838    7.410278    2.936933
    4.252878    8.197609    3.417135
    5.452774    6.100822    6.752103
    3.728462    4.338527    8.517633
    8.978646    6.661511    5.688649
    7.190713    2.402862    6.742446
    3.461765    1.361027    3.522807
    1.316264    2.892866    1.498786
    5.837036    5.773381    4.800917
    1.309195    3.334138    3.491015
    2.972546    9.030297    2.056543
    5.877933    5.434274    1.142978
    6.942552    3.558990    8.430249
    8.632519    0.807049    0.968217
    4.046474    5.275933    5.540024
    3.224631    6.527221    2.970292
    1.140842    2.888849    8.490547
    1.373594    9.179679    7.220479
    3.671728    7.177231    5.045466
    6.671980    0.977956    5.358337
    2.129476    5.455989    4.255969
    0.129608    5.425820    4.164430
    6.877443    1.641818    1.443487
    8.633017    2.532689    8.129009
    3.518825    0.529033    8.436341
    5.251324    2.226829    3.257823
    3.333736    3.429872    1.220700
    6.206300    3.939962    2.866456
    9.191725    0.603703    8.064376
    3.584955    3.331364    3.202626
    7.677798    4.997964    4.700118
    2.499143    3.519335    7.164864
    4.330759    7.750032    6.897614
    5.796188    3.769021    4.816461
    2.331346    4.679601    2.421270
    9.049195    9.137232    6.255743
    8.713922    7.089193    7.625435
    6.851537    7.486746    6.369452
    8.635109    4.626145    8.123159
    1.504327    1.407737    3.991659
    3.469635    6.381954    8.232762
    3.175062    7.206362    1.087999
    5.840655    3.950310    6.807709
    3.091629    2.457227    8.752564
    6.579464    8.700441    1.427105
    4.089477    1.413808    5.454844
    8.401845    3.251705    5.396121
    4.214493    8.128962    8.859723
    7.110083    5.724129    2.860965
    2.175430    5.266178    6.246396
    7.399120    6.971237    4.447458
    9.256591    0.140276    2.791106
    9.285329    7.382936    3.848682
    1.066314    2.869005    5.421498
    9.054743    3.926638    2.584636
    5.046178    2.064641    8.928415
    8.850241    2.787143    0.790106
    5.172969    7.306736    1.135551
    8.528174    1.992869    2.598108
    8.692578    8.236727    0.885000
    1.230423    0.896426    1.580387
    1.881532    7.440086    4.190273
    6.453735    3.531534    0.924307
    3.131278    1.435446    1.270386
    2.725166    9.277422    4.607008
    4.822650    0.332611    1.816452
    5.179758    0.414858    4.101364
    7.255504    6.059441    8.526919
    2.412906    7.224409    6.623420
    5.066177    5.581316    2.964902
    7.536025    5.615758    6.597048
    3.241507    9.388094    6.536776
    0.739746    9.057219    4.497403
    0.392602    4.540495    0.841597
    2.033938    5.256498    9.059035
    6.908301    1.111896    3.372567
    6.940242    1.549435    8.543050
    7.300026    6.838833    1.211335

CELL_TYPES 100
1
1
1
1
1
1
1
1
1
1
1
1
1
1
1
1
1
1
1
1
1
1
1
1
1
1
1
1
1
1
1
1
1
1
1
1
1
1
1
1
1
1
1
1
1
1
1
1
1
1
1
1
1
1
1
1
1
1
1
1
1
1
1
1
1
1
1
1
1
1
1
1
1
1
1
1
1
1
1
1
1
1
1
1
1
1
1
1
1
1
1
1
1
1
1
1
1
1
1
1

POINT_DATA 100
SCALARS index float 1
LOOKUP_TABLE default
  1.0
  2.0
  3.0
  4.0
  5.0
  6.0
  7.0
  8.0
  9.0
 10.0
 11.0
 12.0
 13.0
 14.0
 15.0
 16.0
 17.0
 18.0
 19.0
 20.0
 21.0
 22.0
 23.0
 24.0
 25.0
 26.0
 27.0
 28.0
 29.0
 30.0
 31.0
 32.0
 33.0
 34.0
 35.0
 36.0
 37.0
 38.0
 39.0
 40.0
 41.0
 42.0
 43.0
 44.0
 45.0
 46.0
 47.0
 48.0
 49.0
 50.0
 51.0
 52.0
 53.0
 54.0
 55.0
 56.0
 57.0
 58.0
 59.0
 60.0
 61.0
 62.0
 63.0
 64.0
 65.0
 66.0
 67.0
 68.0
 69.0
 70.0
 71.0
 72.0
 73.0
 74.0
 75.0
 76.0
 77.0
 78.0
 79.0
 80.0
 81.0
 82.0
 83.0
 84.0
 85.0
 86.0
 87.0
 88.0
 89.0
 90.0
 91.0
 92.0
 93.0
 94.0
 95.0
 96.0
 97.0
 98.0
 99.0
100.0
