# vtk DataFile Version 3.0
a stupid file
ASCII
DATASET UNSTRUCTURED_GRID
POINTS 100 float
    5.056576    4.320999    1.364719
    0.427342    6.343842    0.640139
    2.652100    8.499260    8.610791
    0.608381    0.982002    1.302228
    1.062953    8.461394    1.291518
    6.036384    0.137031    3.380168
    5.174519    7.768122    6.972258
    6.402096    2.020781    6.642624
    0.548793    7.036659    6.427278
    3.824947    7.504197    1.348187
    5.571946    5.876623    8.307565
    4.667678    8.829406    5.061319
    1.752370    0.698601    7.872294
    6.232779    8.280421    8.598761
    1.102841    4.539255    8.711343
    7.968344    6.035874    3.410934
    8.600074    5.702302    7.002220
    7.873019    6.015793    0.711683
    9.400748    2.219013    2.739934
    0.995704    0.972282    5.684339
    3.473724    6.372904    7.178197
    6.130606    1.143728    8.602140
    5.927418    6.883963    3.346683
    4.337974    8.089589    3.204844
    5.109156    0.485741    7.013462
    3.739610    5.343857    8.906309
    9.184739    2.219575    4.728219
    8.352490    7.673852    7.443407
    3.176009    1.601657    3.146012
    1.624272    4.825607    1.152260
    4.278177    6.861027    5.038886
    1.242188    4.965604    3.110409
    2.469666    1.739418    1.257945
    5.416141    6.292720    1.362961
    6.764407    4.403742    7.508946
    8.132521    0.352401    1.267825
    3.657676    4.251245    6.468398
    3.346624    6.357994    3.341807
    1.295416    2.621693    8.176851
    1.674276    5.508343    7.057797
    3.272288    0.814760    5.330726
    7.094764    1.850731    4.725751
    2.687204    4.317248    4.333616
    9.072221    5.793062    5.060926
    6.595899    3.044786    1.291836
    9.073105    1.479317    8.203571
    3.555844    1.634144    8.373288
    5.144134    1.928664    3.293511
    3.471339    5.538145    1.446162
    6.585172    4.420175    4.046536
    0.771656    7.923507    8.244396
    3.873299    3.467362    2.960989
    6.177495    7.530101    5.240816
    3.256557    8.305728    6.712360
    4.450758    2.440181    6.776611
    5.545444    5.472355    5.721206
    2.006450    6.814975    1.923201
    9.422629    9.312802    7.033064
    9.384254    6.177176    8.780193
    5.616207    3.482025    5.523288
    8.545048    4.375015    8.497176
    1.809362    3.048164    2.925553
    4.288214    7.354101    8.718961
    2.874169    9.242103    1.623005
    6.790671    6.543833    6.869030
    3.072122    3.572365    8.261129
    6.286709    1.080488    1.000043
    3.747700    2.682805    4.797543
    8.264040    1.320651    6.259284
    4.523433    9.376908    8.854903
    7.902928    3.541706    2.822403
    1.707280    2.667070    4.896257
    7.133353    9.273827    5.027101
    0.113051    6.971901    2.601689
    8.185655    7.581681    5.198199
    1.985263    8.714720    5.222456
    8.555900    0.469980    3.220035
    5.110775    3.582921    8.308544
    8.433594    2.313044    0.991843
    4.873360    9.265623    1.678355
    7.793390    7.957831    2.882829
    8.601496    7.846117    1.056814
    0.893758    2.963970    1.127928
    1.321921    1.102020    3.706686
    6.790989    5.024119    2.070224
    3.208527    3.589630    1.078693
    1.926008    8.332292    3.234358
    4.730048    2.326444    1.377730
    5.202514    1.325375    5.199430
    7.412083    6.509201    8.769724
    2.483087    2.104285    6.651637
    4.933428    5.148333    3.185440
    7.474676    0.053849    7.590480
    2.344240    6.773996    5.545955
    0.619197    7.460214    4.473943
    8.843398    4.268076    0.786126
    2.167429    6.560383    8.687016
    7.055211    1.730432    2.729784
    7.461524    2.665703    8.211557
    6.612309    7.892211    1.259189

CELL_TYPES 100
1
1
1
1
1
1
1
1
1
1
1
1
1
1
1
1
1
1
1
1
1
1
1
1
1
1
1
1
1
1
1
1
1
1
1
1
1
1
1
1
1
1
1
1
1
1
1
1
1
1
1
1
1
1
1
1
1
1
1
1
1
1
1
1
1
1
1
1
1
1
1
1
1
1
1
1
1
1
1
1
1
1
1
1
1
1
1
1
1
1
1
1
1
1
1
1
1
1
1
1

POINT_DATA 100
SCALARS index float 1
LOOKUP_TABLE default
  1.0
  2.0
  3.0
  4.0
  5.0
  6.0
  7.0
  8.0
  9.0
 10.0
 11.0
 12.0
 13.0
 14.0
 15.0
 16.0
 17.0
 18.0
 19.0
 20.0
 21.0
 22.0
 23.0
 24.0
 25.0
 26.0
 27.0
 28.0
 29.0
 30.0
 31.0
 32.0
 33.0
 34.0
 35.0
 36.0
 37.0
 38.0
 39.0
 40.0
 41.0
 42.0
 43.0
 44.0
 45.0
 46.0
 47.0
 48.0
 49.0
 50.0
 51.0
 52.0
 53.0
 54.0
 55.0
 56.0
 57.0
 58.0
 59.0
 60.0
 61.0
 62.0
 63.0
 64.0
 65.0
 66.0
 67.0
 68.0
 69.0
 70.0
 71.0
 72.0
 73.0
 74.0
 75.0
 76.0
 77.0
 78.0
 79.0
 80.0
 81.0
 82.0
 83.0
 84.0
 85.0
 86.0
 87.0
 88.0
 89.0
 90.0
 91.0
 92.0
 93.0
 94.0
 95.0
 96.0
 97.0
 98.0
 99.0
100.0
