# vtk DataFile Version 3.0
a stupid file
ASCII
DATASET UNSTRUCTURED_GRID
POINTS 100 float
    4.066689    0.937124    0.945568
    8.927764    4.750810    0.909540
    1.828377    5.582884    9.107808
    1.478266    3.493517    1.585743
    1.435990    0.179561    3.720599
    7.603498    7.092928    2.612285
    5.846562    2.295454    6.589913
    3.988547    0.703809    6.747592
    0.654483    1.261767    5.306123
    3.584376    2.876681    1.019139
    5.667522    4.760327    8.609317
    5.818128    6.794527    4.696090
    1.098066    7.415111    8.547813
    6.969986    6.281854    8.318538
    0.289347    9.037044    7.298170
    8.537802    2.206427    4.452772
    8.060177    8.958431    8.418448
    7.306093    3.260661    1.012198
    9.310210    4.771725    2.872485
    0.112640    1.599875    7.201371
    0.942834    7.974603    5.727076
    6.125160    8.485060    8.236089
    6.833034    5.310889    3.097365
    4.862994    6.533978    2.867859
    5.842339    6.095234    6.610939
    2.998297    3.466759    8.794979
    8.501221    3.034900    6.272729
    7.586064    1.345251    6.856785
    2.940150    4.427112    5.428653
    0.906877    8.671331    2.018070
    4.870056    4.023905    4.849244
    1.524209    4.400744    3.953892
    3.536168    7.021806    1.453132
    5.434131    3.965811    1.039970
    6.463391    2.936635    8.400689
    8.212289    8.638338    1.489835
    4.121152    2.299287    5.530942
    4.068760    5.834120    4.564691
    1.377408    9.355240    8.945845
    2.329497    4.701099    7.330648
    3.762634    1.135653    3.855683
    6.885149    8.476656    4.517745
    2.549343    0.624457    5.361125
    8.249918    6.283454    4.322975
    6.479707    0.136193    1.099548
    8.442329    2.662281    8.492534
    3.077820    7.184475    8.382628
    5.200522    0.624120    2.563104
    1.600322    1.916235    8.987868
    4.746139    2.555248    2.847043
    0.290745    6.071074    5.664647
    3.546036    8.077591    3.354724
    6.842028    3.122510    5.065142
    2.287598    8.985419    7.168862
    3.849676    6.204289    6.811926
    5.685537    1.621982    4.423567
    2.697667    2.419688    2.752525
    8.407708    0.176942    5.159313
    8.688060    7.163502    7.798153
    6.039865    8.058292    6.283447
    0.371517    5.501167    7.738714
    0.970650    2.488814    3.758778
    3.745204    5.312215    8.604343
    3.545951    4.860332    1.271263
    6.447162    4.203802    6.853593
    3.166675    0.739004    8.570530
    6.558553    7.568673    0.974748
    4.969882    9.345355    5.188702
    8.167342    5.226733    6.607976
    5.040115    6.806349    8.303150
    6.579082    3.327097    3.093097
    2.108461    1.549934    7.079791
    6.829683    5.121751    5.118546
    0.189078    6.755524    2.940738
    0.683903    4.105012    5.753323
    1.812314    6.575043    6.860733
    8.484492    2.966490    2.603680
    4.859713    1.752042    8.243409
    9.187978    0.953088    1.609744
    5.192888    5.950730    0.957263
    8.723236    8.626952    3.425312
    8.859237    6.770028    1.089556
    1.543266    6.854686    1.472318
    2.146866    2.592022    5.373033
    5.763472    2.000940    1.215249
    2.870035    8.901527    1.605715
    2.507680    5.680166    2.772457
    4.788175    8.498812    0.952233
    5.951349    8.208982    2.769533
    8.230113    4.792049    8.757138
    2.966888    8.097847    5.456018
    4.994512    4.538766    2.909508
    8.014876    7.849591    6.044319
    4.190168    8.162188    7.036954
    1.755972    7.440608    3.979160
    9.230295    2.777333    0.757622
    1.000240    3.759102    8.493631
    7.331655    0.660073    2.900483
    6.660931    0.952895    8.585957
    7.171311    5.673902    1.159919

CELL_TYPES 100
1
1
1
1
1
1
1
1
1
1
1
1
1
1
1
1
1
1
1
1
1
1
1
1
1
1
1
1
1
1
1
1
1
1
1
1
1
1
1
1
1
1
1
1
1
1
1
1
1
1
1
1
1
1
1
1
1
1
1
1
1
1
1
1
1
1
1
1
1
1
1
1
1
1
1
1
1
1
1
1
1
1
1
1
1
1
1
1
1
1
1
1
1
1
1
1
1
1
1
1

POINT_DATA 100
SCALARS index float 1
LOOKUP_TABLE default
  1.0
  2.0
  3.0
  4.0
  5.0
  6.0
  7.0
  8.0
  9.0
 10.0
 11.0
 12.0
 13.0
 14.0
 15.0
 16.0
 17.0
 18.0
 19.0
 20.0
 21.0
 22.0
 23.0
 24.0
 25.0
 26.0
 27.0
 28.0
 29.0
 30.0
 31.0
 32.0
 33.0
 34.0
 35.0
 36.0
 37.0
 38.0
 39.0
 40.0
 41.0
 42.0
 43.0
 44.0
 45.0
 46.0
 47.0
 48.0
 49.0
 50.0
 51.0
 52.0
 53.0
 54.0
 55.0
 56.0
 57.0
 58.0
 59.0
 60.0
 61.0
 62.0
 63.0
 64.0
 65.0
 66.0
 67.0
 68.0
 69.0
 70.0
 71.0
 72.0
 73.0
 74.0
 75.0
 76.0
 77.0
 78.0
 79.0
 80.0
 81.0
 82.0
 83.0
 84.0
 85.0
 86.0
 87.0
 88.0
 89.0
 90.0
 91.0
 92.0
 93.0
 94.0
 95.0
 96.0
 97.0
 98.0
 99.0
100.0
