# vtk DataFile Version 3.0
a stupid file
ASCII
DATASET UNSTRUCTURED_GRID
POINTS 100 float
    4.533421    8.631922    1.305165
    9.115455    3.247084    0.231802
    2.869013    3.179073    9.269712
    2.096264    8.170017    1.658391
    1.623139    5.428348    3.458664
    6.718912    7.798124    3.029356
    5.820074    8.581649    6.593095
    3.550138    0.013771    6.778820
    0.274806    5.753166    4.903214
    3.226751    6.728205    8.926376
    6.060113    4.401371    8.879517
    5.805456    6.042416    4.708057
    1.773379    4.892376    8.738149
    7.184572    6.031585    8.600107
    0.396363    2.324774    7.110119
    8.435051    7.093352    4.129021
    8.468609    9.357729    7.412422
    7.482486    1.893695    1.186150
    0.491685    6.936009    2.064500
    0.541830    4.314230    7.271041
    1.421837    1.690639    5.461972
    6.310616    7.957131    8.465626
    6.870479    5.803900    3.023062
    3.727778    0.623064    2.466538
    6.709947    2.914759    6.593299
    2.858233    1.267136    8.678238
    8.427530    1.845841    5.760225
    6.881430    6.901779    6.825040
    2.056075    8.872523    5.574500
    1.035408    4.533962    1.624328
    3.821512    5.945766    4.474474
    0.750170    0.385498    3.875299
    3.016337    4.432131    2.333979
    5.607768    2.522081    1.487028
    6.389511    2.453567    8.566012
    7.949074    6.876010    1.722272
    4.626061    5.130872    6.114076
    4.924024    7.824362    4.927871
    1.327365    7.589484    9.059838
    2.261756    7.917499    7.322312
    2.536934    8.946841    3.634649
    6.913052    8.052221    5.004038
    3.038764    4.026266    5.562089
    8.314777    9.101953    4.038089
    6.399155    7.953608    1.060989
    8.237046    1.775201    8.205921
    4.372549    7.941209    7.815582
    5.036952    1.889205    3.296317
    1.199879    0.242632    9.159404
    4.055055    0.583644    4.453359
    0.123329    9.370891    5.722401
    2.788524    7.024291    3.144304
    6.793916    2.381829    4.665884
    2.183303    3.177944    7.390949
    5.133173    1.724143    6.903403
    4.821137    7.093498    3.064681
    2.390808    1.518463    3.708774
    8.449400    1.653335    3.766792
    8.458142    7.433718    7.958242
    6.415420    4.862776    6.966235
    0.636933    6.259524    7.726247
    0.988486    7.424678    3.939197
    3.866434    4.807031    8.671574
    3.643911    2.528703    1.865354
    6.899716    0.838860    6.567544
    2.974534    8.724606    9.012204
    6.172204    5.702305    1.151512
    5.087943    3.304721    5.413875
    8.424893    3.818038    6.100396
    5.201530    6.295723    8.593466
    6.622232    3.823301    3.147641
    2.601792    5.895033    7.218818
    6.789882    4.340054    5.072454
    0.306012    8.927812    2.128167
    0.191900    7.420539    6.159770
    1.656667    0.497631    7.228805
    0.711120    2.041471    2.754658
    4.706251    0.506703    8.431631
    8.252934    8.663580    0.806143
    4.717387    4.303433    1.290022
    8.400467    3.650955    4.107574
    8.694788    5.155269    0.920403
    1.768088    2.721687    1.199013
    2.050373    6.872241    5.563226
    6.075117    0.482911    1.373723
    2.217517    6.137332    1.445144
    1.889804    0.747849    1.668687
    4.397810    6.639343    1.162366
    5.454562    9.341174    3.187901
    7.856736    3.729527    8.016312
    3.274671    1.904063    6.186511
    5.023079    5.036859    3.134763
    8.517242    5.774684    6.515810
    4.144420    3.501701    7.169341
    1.922201    3.464023    3.701295
    9.353113    1.189112    1.120636
    1.131231    2.234550    8.968165
    8.623444    3.209177    2.169850
    6.741458    0.484348    8.529520
    7.055673    3.867928    1.117240

CELL_TYPES 100
1
1
1
1
1
1
1
1
1
1
1
1
1
1
1
1
1
1
1
1
1
1
1
1
1
1
1
1
1
1
1
1
1
1
1
1
1
1
1
1
1
1
1
1
1
1
1
1
1
1
1
1
1
1
1
1
1
1
1
1
1
1
1
1
1
1
1
1
1
1
1
1
1
1
1
1
1
1
1
1
1
1
1
1
1
1
1
1
1
1
1
1
1
1
1
1
1
1
1
1

POINT_DATA 100
SCALARS index float 1
LOOKUP_TABLE default
  1.0
  2.0
  3.0
  4.0
  5.0
  6.0
  7.0
  8.0
  9.0
 10.0
 11.0
 12.0
 13.0
 14.0
 15.0
 16.0
 17.0
 18.0
 19.0
 20.0
 21.0
 22.0
 23.0
 24.0
 25.0
 26.0
 27.0
 28.0
 29.0
 30.0
 31.0
 32.0
 33.0
 34.0
 35.0
 36.0
 37.0
 38.0
 39.0
 40.0
 41.0
 42.0
 43.0
 44.0
 45.0
 46.0
 47.0
 48.0
 49.0
 50.0
 51.0
 52.0
 53.0
 54.0
 55.0
 56.0
 57.0
 58.0
 59.0
 60.0
 61.0
 62.0
 63.0
 64.0
 65.0
 66.0
 67.0
 68.0
 69.0
 70.0
 71.0
 72.0
 73.0
 74.0
 75.0
 76.0
 77.0
 78.0
 79.0
 80.0
 81.0
 82.0
 83.0
 84.0
 85.0
 86.0
 87.0
 88.0
 89.0
 90.0
 91.0
 92.0
 93.0
 94.0
 95.0
 96.0
 97.0
 98.0
 99.0
100.0
