# vtk DataFile Version 3.0
a stupid file
ASCII
DATASET UNSTRUCTURED_GRID
POINTS 100 float
    4.057734    0.618861    1.679459
    8.512448    4.296932    1.115269
    2.387032    5.025107    8.722792
    1.516631    1.122291    1.893824
    1.389342    2.425408    4.300230
    7.587082    2.906574    3.156699
    6.577446    5.474075    6.799676
    3.853161    4.508440    6.055637
    0.512377    7.755160    5.531726
    3.027163    2.290230    1.298670
    5.834690    4.520419    8.393035
    6.039654    5.788949    4.581749
    1.019109    6.462627    8.972590
    7.450747    5.666539    8.684390
    0.370490    0.799047    7.458600
    9.203276    4.832256    4.100358
    8.798153    8.847788    8.508193
    7.116243    2.868330    1.213298
    0.131078    0.196417    2.999929
    9.381436    2.905729    7.091817
    0.805758    4.407238    5.761521
    6.939212    8.120669    8.642437
    6.747120    1.118460    2.845086
    4.270067    3.293517    2.504795
    6.379196    9.178149    6.610063
    3.260987    2.789002    8.385800
    9.123819    6.042357    6.165077
    7.153256    3.563551    6.939053
    3.101590    2.351068    5.331050
    1.035470    7.161119    1.652035
    4.109237    4.552452    4.070493
    1.216777    6.615417    4.025546
    3.020954    6.687221    1.185073
    5.299857    3.612159    0.820167
    6.538448    2.661443    8.625655
    7.988471    8.205844    1.616442
    4.397985    0.218630    5.336933
    4.320074    6.765008    4.279771
    1.862517    8.598284    8.840903
    2.278280    6.539020    7.420620
    3.034341    5.860854    3.006286
    6.630683    7.671018    4.910990
    2.415551    8.027664    4.931687
    8.213151    6.533683    4.453599
    6.219510    8.931568    1.027431
    8.324369    1.733115    8.443944
    3.895447    7.379949    8.244855
    5.241694    5.966516    2.694585
    1.417846    1.099939    9.135645
    4.344274    8.368130    3.084348
    9.053953    2.919380    5.117718
    3.077750    1.928016    3.349608
    7.041093    2.445841    5.195161
    1.955170    1.931829    7.005236
    4.484694    8.997586    7.227030
    5.468402    2.672236    3.980578
    2.439157    7.774901    2.947952
    8.249047    8.785784    4.539328
    8.804404    6.931509    7.930988
    6.216706    1.745213    6.877173
    0.187784    5.040625    7.825006
    1.793524    4.685463    4.044889
    4.138378    5.432912    7.847407
    3.028294    4.441729    1.437280
    7.212956    7.370395    6.802006
    3.092884    0.701096    8.118061
    5.981794    6.947795    1.116822
    4.853320    6.238581    6.134029
    8.526919    8.852507    6.524890
    5.729030    6.580774    8.237410
    6.328951    8.617736    3.175303
    2.235640    3.911011    7.068808
    7.428114    4.386649    4.906627
    0.091349    2.209814    2.793903
    0.438724    1.126038    5.486718
    1.890561    8.410052    6.830211
    9.189305    7.661460    3.121272
    4.868410    1.591523    8.351578
    0.051033    9.394873    1.010316
    4.624724    5.494476    0.851715
    8.318162    1.312797    4.118604
    8.548855    6.272822    1.442026
    1.204879    5.095265    1.935335
    2.370660    0.502661    5.552339
    5.734282    1.443842    0.966319
    2.363436    8.576394    1.117344
    1.773749    3.258946    2.523391
    4.375022    8.157446    1.095747
    6.066297    4.145933    2.767946
    8.277387    3.729295    8.587874
    2.887465    6.184845    5.548938
    4.876873    0.825211    3.492304
    8.150379    1.389239    6.480813
    4.440087    2.733872    6.766932
    2.041680    0.215410    3.597308
    9.023606    2.378891    0.863459
    1.279578    3.018314    8.587351
    7.148105    6.817004    2.784677
    6.633839    0.666268    8.517633
    6.652626    5.063743    1.090550

CELL_TYPES 100
1
1
1
1
1
1
1
1
1
1
1
1
1
1
1
1
1
1
1
1
1
1
1
1
1
1
1
1
1
1
1
1
1
1
1
1
1
1
1
1
1
1
1
1
1
1
1
1
1
1
1
1
1
1
1
1
1
1
1
1
1
1
1
1
1
1
1
1
1
1
1
1
1
1
1
1
1
1
1
1
1
1
1
1
1
1
1
1
1
1
1
1
1
1
1
1
1
1
1
1

POINT_DATA 100
SCALARS index float 1
LOOKUP_TABLE default
  1.0
  2.0
  3.0
  4.0
  5.0
  6.0
  7.0
  8.0
  9.0
 10.0
 11.0
 12.0
 13.0
 14.0
 15.0
 16.0
 17.0
 18.0
 19.0
 20.0
 21.0
 22.0
 23.0
 24.0
 25.0
 26.0
 27.0
 28.0
 29.0
 30.0
 31.0
 32.0
 33.0
 34.0
 35.0
 36.0
 37.0
 38.0
 39.0
 40.0
 41.0
 42.0
 43.0
 44.0
 45.0
 46.0
 47.0
 48.0
 49.0
 50.0
 51.0
 52.0
 53.0
 54.0
 55.0
 56.0
 57.0
 58.0
 59.0
 60.0
 61.0
 62.0
 63.0
 64.0
 65.0
 66.0
 67.0
 68.0
 69.0
 70.0
 71.0
 72.0
 73.0
 74.0
 75.0
 76.0
 77.0
 78.0
 79.0
 80.0
 81.0
 82.0
 83.0
 84.0
 85.0
 86.0
 87.0
 88.0
 89.0
 90.0
 91.0
 92.0
 93.0
 94.0
 95.0
 96.0
 97.0
 98.0
 99.0
100.0
